
  ___ ___ ___ _ _ _  
 |   |   |_  | | | | 
 | | | | | . | | | | 
 |__ |  _|___|_____|  25.7.0
 |___|_|             

User:   buyer@DESKTOP-3EQA59H
Date:   Thu Jul 16 15:07:47 2026
Arch:   x86_64
Pid:    21514
CWD:    /mnt/c/Users/Buyer/dft-si
Python: 3.11.15
gpaw:   /home/buyer/miniconda3/envs/dft/lib/python3.11/site-packages/gpaw
_gpaw:  /home/buyer/miniconda3/envs/dft/lib/python3.11/site-packages/
        _gpaw.cpython-311-x86_64-linux-gnu.so
ase:    /home/buyer/miniconda3/envs/dft/lib/python3.11/site-packages/ase (version 3.29.0)
numpy:  /home/buyer/miniconda3/envs/dft/lib/python3.11/site-packages/numpy (version 2.4.6)
scipy:  /home/buyer/miniconda3/envs/dft/lib/python3.11/site-packages/scipy (version 1.17.1)
libxc:  7.0.0
units:  Angstrom and eV
cores: 1
OpenMP: True
OMP_NUM_THREADS: 1

Input parameters:
  kpts: [2 2 2]
  mode: {ecut: 600.0,
         name: pw}
  xc: PBE

System changes: positions, numbers, cell, pbc, initial_charges, initial_magmoms 

Initialize ...

species:
  Cs:
    name: Caesium
    id: fa822afd343f47335d508b9ee4f394c3
    Z: 55.0
    valence: 9
    core: 46
    charge: 0.0
    file: /home/buyer/miniconda3/envs/dft/lib/python3.11/site-packages/gpaw_data/setups/Cs.PBE.gz
    compensation charges: {type: gauss,
                           rc: 0.33,
                           lmax: 2}
    cutoffs: {filter: 2.06,
              core: 2.51}
    projectors:
      #              energy  rcut
      - 5s(2.00)   -26.706   1.164
      - 6s(1.00)    -2.085   1.164
      - 5p(6.00)   -13.523   1.058
      -  p          13.688   1.058
      -  d           0.000   1.058
  
    # Using partial waves for Cs as LCAO basis

  Pb:
    name: Lead
    id: 66e73b13d76dc837202bcdb13fee58e6
    Z: 82.0
    valence: 14
    core: 68
    charge: 0.0
    file: /home/buyer/miniconda3/envs/dft/lib/python3.11/site-packages/gpaw_data/setups/Pb.PBE.gz
    compensation charges: {type: gauss,
                           rc: 0.38,
                           lmax: 2}
    cutoffs: {filter: 2.36,
              core: 2.43}
    projectors:
      #              energy  rcut
      - 6s(2.00)   -11.969   1.259
      - 6p(2.00)    -3.506   1.275
      - 5d(10.00)   -21.211   1.217
      -  s          15.243   1.259
      -  p          23.705   1.275
      -  d           6.001   1.217
  
    # Using partial waves for Pb as LCAO basis

  I:
    name: Iodine
    id: 91405a398e4dfe788ff04f57531604ec
    Z: 53.0
    valence: 7
    core: 46
    charge: 0.0
    file: /home/buyer/miniconda3/envs/dft/lib/python3.11/site-packages/gpaw_data/setups/I.PBE.gz
    compensation charges: {type: gauss,
                           rc: 0.37,
                           lmax: 2}
    cutoffs: {filter: 2.06,
              core: 2.90}
    projectors:
      #              energy  rcut
      - 5s(2.00)   -17.382   1.164
      - 5p(5.00)    -7.088   1.164
      -  s           9.829   1.164
      -  p          20.123   1.164
      -  d           0.000   1.164
  
    # Using partial waves for I as LCAO basis

Reference energy: -10684034.619125  # eV

Spin-paired calculation

Convergence criteria:
 Maximum [total energy] change in last 3 cyles: 0.0005 eV / valence electron
 Maximum integral of absolute [dens]ity change: 0.0001 electrons / valence electron
 Maximum integral of absolute [eigenst]ate change: 4e-08 eV^2 / valence electron
 Maximum number of scf [iter]ations: 333
 (Square brackets indicate name in SCF output, whereas a 'c' in
 the SCF output indicates the quantity has converged.)

Symmetries present (total): 1

  ( 1  0  0)
  ( 0  1  0)
  ( 0  0  1)

8 k-points: 2 x 2 x 2 Monkhorst-Pack grid
4 k-points in the irreducible part of the Brillouin zone
       k-points in crystal coordinates                weights
   0:     0.25000000   -0.25000000   -0.25000000          2/8
   1:     0.25000000   -0.25000000    0.25000000          2/8
   2:     0.25000000    0.25000000   -0.25000000          2/8
   3:     0.25000000    0.25000000    0.25000000          2/8

Wave functions: Plane wave expansion
  Cutoff energy: 600.000 eV
  Number of coefficients (min, max): 69650, 69650
  Pulay-stress correction: 0.000000 eV/Ang^3 (de/decut=0.000000)
  Using FFTW library
  ScaLapack parameters: grid=1x1, blocksize=None
  Wavefunction extrapolation:
    Improved wavefunction reuse through dual PAW basis 

Occupation numbers: Fermi-Dirac:
  width: 0.1000  # eV
 

Eigensolver
   Davidson(niter=2) 

Densities:
  Coarse grid: 75*75*75 grid
  Fine grid: 150*150*150 grid
  Total Charge: 0.000000 

Density mixing:
  Method: separate
  Backend: pulay
  Linear mixing parameter: 0.05
  old densities: 5
  Damping of long wavelength oscillations: 50 

Hamiltonian:
  XC and Coulomb potentials evaluated on a 150*150*150 grid
  Using the PBE Exchange-Correlation functional
  External potential:
    NoExternalPotential
 

XC parameters: PBE with 2 nearest neighbor stencil

Memory estimate:
  Process memory now: 7559.36 MiB
  Calculator: 1460.82 MiB
    Density: 227.10 MiB
      Arrays: 83.68 MiB
      Localized functions: 111.23 MiB
      Mixer: 32.19 MiB
    Hamiltonian: 57.72 MiB
      Arrays: 54.72 MiB
      XC: 0.00 MiB
      Poisson: 0.00 MiB
      vbar: 3.01 MiB
    Wavefunctions: 1175.99 MiB
      Arrays psit_nG: 867.22 MiB
      Eigensolver: 228.48 MiB
      Projections: 6.81 MiB
      Projectors: 53.14 MiB
      PW-descriptor: 20.34 MiB

Total number of cores used: 1

Number of atoms: 39
Number of atomic orbitals: 204
Number of bands in calculation: 204
Number of valence electrons: 345
Bands to converge: occupied

... initialized

Initializing position-dependent things.

Density initialized from atomic densities
Creating initial wave functions:
  204 bands from LCAO basis set

         .------------------------------Cs 
        /|                              |  
       / |                    I         |  
      /  |                              |  
     /   |                      I   Cs  |  
    /    |                              |  
   /     |     Pb      I  I   Pb      I |  
  /      |                              |  
 *       Cs  I              I           |  
 |       |                              |  
 |       |Pb   I  I       Pb   I  I     |  
 |       |                              |  
 |   Cs  I           Cs                 |  
 |       |                              |  
 |     I | I   Pb      I  I   Pb        |  
 |       |                              |  
 |       .---I---Cs------Cs--I----------.  
 |      /                              /   
 |     /   Pb  I   I      Pb          /    
 |    /                              /     
 |   /   I           Cs  I          /      
 |  /I                             /       
 | /                              /        
 |/                              /         
 *------------------------------*          

Atomic positions and initial magnetic moments

Positions:
   0 Cs    -0.127797   -0.295440   -0.109854    ( 0.0000,  0.0000,  0.0000)
   1 Pb     3.268687    3.194996    3.245641    ( 0.0000,  0.0000,  0.0000)
   2 I      0.970017    3.195119    1.169631    ( 0.0000,  0.0000,  0.0000)
   3 I      3.385709    0.024457    3.381662    ( 0.0000,  0.0000,  0.0000)
   4 Cs     0.062689   -0.258797    6.633687    ( 0.0000,  0.0000,  0.0000)
   5 Pb     3.075655    3.194986    9.526337    ( 0.0000,  0.0000,  0.0000)
   6 I      3.100791    3.194509    6.431833    ( 0.0000,  0.0000,  0.0000)
   7 I     -0.092715    3.194973    9.285150    ( 0.0000,  0.0000,  0.0000)
   8 I      3.123691    0.020959    9.751319    ( 0.0000,  0.0000,  0.0000)
   9 Cs    -0.127909    6.685512   -0.109959    ( 0.0000,  0.0000,  0.0000)
  10 Pb     3.276752    9.584972    3.271633    ( 0.0000,  0.0000,  0.0000)
  11 I      3.308115    9.584420    0.074803    ( 0.0000,  0.0000,  0.0000)
  12 I      0.078216    9.585026    3.221292    ( 0.0000,  0.0000,  0.0000)
  13 I      3.385495    6.365529    3.382813    ( 0.0000,  0.0000,  0.0000)
  14 Cs     0.062784    6.648873    6.633596    ( 0.0000,  0.0000,  0.0000)
  15 Pb     3.222802    9.585022    9.670395    ( 0.0000,  0.0000,  0.0000)
  16 I      3.201389    9.585574    6.482166    ( 0.0000,  0.0000,  0.0000)
  17 I     -0.002905    9.585039    9.659279    ( 0.0000,  0.0000,  0.0000)
  18 I      3.123617    6.369074    9.750204    ( 0.0000,  0.0000,  0.0000)
  19 Cs     6.628592   -0.228253    0.043696    ( 0.0000,  0.0000,  0.0000)
  20 Pb     9.565302    3.195022    3.070857    ( 0.0000,  0.0000,  0.0000)
  21 I      9.399275    3.195091   -0.097301    ( 0.0000,  0.0000,  0.0000)
  22 I      6.457994    3.195074    2.992131    ( 0.0000,  0.0000,  0.0000)
  23 I      9.745840    0.017437    3.141710    ( 0.0000,  0.0000,  0.0000)
  24 Cs     6.410195    0.053261    6.405464    ( 0.0000,  0.0000,  0.0000)
  25 Pb     9.482171    3.195006    9.472372    ( 0.0000,  0.0000,  0.0000)
  26 I      9.341024    3.194941    6.267951    ( 0.0000,  0.0000,  0.0000)
  27 I      6.264797    3.195047    9.526156    ( 0.0000,  0.0000,  0.0000)
  28 I      9.548278   -0.007930    9.543775    ( 0.0000,  0.0000,  0.0000)
  29 Cs     6.628774    6.618294    0.043689    ( 0.0000,  0.0000,  0.0000)
  30 Pb     9.669065    9.585016    3.225440    ( 0.0000,  0.0000,  0.0000)
  31 I      9.582732    9.584975   -0.000739    ( 0.0000,  0.0000,  0.0000)
  32 I      6.484405    9.584958    3.296460    ( 0.0000,  0.0000,  0.0000)
  33 I      9.745850    6.372597    3.141808    ( 0.0000,  0.0000,  0.0000)
  34 Cs     6.410192    6.336724    6.405571    ( 0.0000,  0.0000,  0.0000)
  35 Pb     9.564990    9.585015    9.566291    ( 0.0000,  0.0000,  0.0000)
  36 I      9.708592    9.585067    6.403198    ( 0.0000,  0.0000,  0.0000)
  37 I      6.399531    9.584966    9.605550    ( 0.0000,  0.0000,  0.0000)
  38 I      9.548334    6.397952    9.543676    ( 0.0000,  0.0000,  0.0000)

Unit cell:
           periodic     x           y           z      points  spacing
  1. axis:    yes   12.780000    0.000000    0.000000    75     0.1704
  2. axis:    yes    0.000000   12.780000    0.000000    75     0.1704
  3. axis:    yes    0.000000    0.000000   12.780000    75     0.1704

  Lengths:  12.780000  12.780000  12.780000
  Angles:   90.000000  90.000000  90.000000

Effective grid spacing dv^(1/3) = 0.1704

     iter     time        total  log10-change:
                         energy   eigst   dens
iter:   1 15:10:05  -113.377023
iter:   2 15:11:12  -112.845338   -1.41  -1.30
iter:   3 15:12:04  -110.670370   -2.03  -1.34
iter:   4 15:12:56  -110.325197   -1.99  -1.53
iter:   5 15:14:10  -110.287235   -2.79  -1.73
iter:   6 15:15:10  -110.229007c  -3.64  -2.09
iter:   7 15:16:35  -110.167992c  -3.53  -2.29
iter:   8 15:17:30  -110.167584c  -4.51  -2.41
iter:   9 15:18:22  -110.172152c  -4.51  -2.66
iter:  10 15:19:13  -110.172394c  -5.23  -2.88
iter:  11 15:20:06  -110.171696c  -6.10  -3.13
iter:  12 15:21:14  -110.171778c  -5.52  -3.17
iter:  13 15:22:16  -110.171843c  -6.05  -3.37
iter:  14 15:23:14  -110.171553c  -6.73  -3.48
iter:  15 15:24:11  -110.171388c  -6.68  -3.54
iter:  16 15:25:14  -110.172118c  -6.58  -3.62
iter:  17 15:26:29  -110.172025c  -7.39  -4.07c
iter:  18 15:27:26  -110.171801c  -7.70c -4.14c

Converged after 18 iterations.

Dipole moment: (11.385070, 75.179587, 16.884009) |e|*Ang

Energy contributions relative to reference atoms: (reference = -10684034.619125)

Kinetic:       +198.418713
Potential:     -205.092836
External:        +0.000000
XC:            -102.513590
Entropy (-ST):   -0.225661
Local:           -0.871258
SIC:             +0.000000
--------------------------
Free energy:   -110.284631
Extrapolated:  -110.171801

Showing only first 2 kpts
 Kpt  Band  Eigenvalues  Occupancy
  0   170      1.09434    2.00000
  0   171      1.26837    2.00000
  0   172      3.66878    0.92493
  0   173      3.97138    0.08012

  1   170      1.09656    2.00000
  1   171      1.26526    2.00000
  1   172      3.71676    0.69493
  1   173      3.95775    0.09129


Fermi level: 3.65374

Gap: 2.400 eV
Transition (v -> c):
  (s=0, k=0, n=171, [0.25, -0.25, -0.25]) -> (s=0, k=2, n=172, [0.25, 0.25, -0.25])
Direct/indirect transitions are different
Direct gap: 2.400 eV
Transition at: (s=0, k=2, n=171, [0.25, 0.25, -0.25])
Timing:                              incl.     excl.
-----------------------------------------------------------
Hamiltonian:                         3.010     0.011   0.0% |
 Atomic:                             0.928     0.002   0.0% |
  XC Correction:                     0.926     0.926   0.0% |
 Calculate atomic Hamiltonians:      1.288     1.288   0.0% |
 Communicate:                        0.000     0.000   0.0% |
 Initialize Hamiltonian:             0.001     0.001   0.0% |
 Poisson:                            0.015     0.015   0.0% |
 XC 3D grid:                         0.767     0.767   0.0% |
LCAO initialization:                74.352     0.087   0.0% |
 LCAO eigensolver:                   0.856     0.001   0.0% |
  Calculate projections:             0.007     0.007   0.0% |
  DenseAtomicCorrection:             0.021     0.021   0.0% |
  Distribute overlap matrix:         0.001     0.001   0.0% |
  Orbital Layouts:                   0.074     0.074   0.0% |
  Potential matrix:                  0.679     0.679   0.0% |
  Sum over cells:                    0.074     0.074   0.0% |
 LCAO to grid:                      72.632    72.632   1.5% ||
 Set positions (LCAO WFS):           0.777     0.090   0.0% |
  Basic WFS set positions:           0.001     0.001   0.0% |
  Basis functions set positions:     0.000     0.000   0.0% |
  P tci:                             0.599     0.599   0.0% |
  ST tci:                            0.070     0.070   0.0% |
  mktci:                             0.018     0.018   0.0% |
PWDescriptor:                        0.085     0.085   0.0% |
SCF-cycle:                        1097.004     0.073   0.0% |
 Davidson:                         952.248   181.193   3.7% ||
  Apply H:                         145.167   141.892   2.9% ||
   HMM T:                            3.275     3.275   0.1% |
  Subspace diag:                   183.251     0.012   0.0% |
   calc_h_matrix:                  161.953    16.716   0.3% |
    Apply H:                       145.236   141.528   2.9% ||
     HMM T:                          3.709     3.709   0.1% |
   diagonalize:                      4.976     4.976   0.1% |
   rotate_psi:                      16.310    16.310   0.3% |
  calc. matrices:                  379.124    86.432   1.8% ||
   Apply H:                        292.692   286.066   5.9% |-|
    HMM T:                           6.626     6.626   0.1% |
  diagonalize:                      32.651    32.651   0.7% |
  rotate_psi:                       30.861    30.861   0.6% |
 Density:                           92.647     0.000   0.0% |
  Atomic density matrices:           0.111     0.111   0.0% |
  Mix:                              23.739    23.739   0.5% |
  Multipole moments:                 0.007     0.007   0.0% |
  Pseudo density:                   68.790    68.790   1.4% ||
   Symmetrize density:               0.000     0.000   0.0% |
 Hamiltonian:                       48.702     0.170   0.0% |
  Atomic:                           15.954     0.043   0.0% |
   XC Correction:                   15.911    15.911   0.3% |
  Calculate atomic Hamiltonians:    21.134    21.134   0.4% |
  Communicate:                       0.000     0.000   0.0% |
  Poisson:                           0.222     0.222   0.0% |
  XC 3D grid:                       11.222    11.222   0.2% |
 Orthonormalize:                     3.335     0.001   0.0% |
  calc_s_matrix:                     0.413     0.413   0.0% |
  inverse-cholesky:                  0.043     0.043   0.0% |
  projections:                       2.277     2.277   0.0% |
  rotate_psi_s:                      0.601     0.601   0.0% |
Set symmetry:                        0.001     0.001   0.0% |
Other:                            3683.301  3683.301  75.8% |-----------------------------|
-----------------------------------------------------------
Total:                                      4857.754 100.0%

Memory usage: 14.78 GiB
Date: Thu Jul 16 16:28:45 2026
