
  ___ ___ ___ _ _ _  
 |   |   |_  | | | | 
 | | | | | . | | | | 
 |__ |  _|___|_____|  25.7.0
 |___|_|             

User:   buyer@DESKTOP-3EQA59H
Date:   Thu Jul 16 19:01:31 2026
Arch:   x86_64
Pid:    22027
CWD:    /mnt/c/Users/Buyer/dft-si
Python: 3.11.15
gpaw:   /home/buyer/miniconda3/envs/dft/lib/python3.11/site-packages/gpaw
_gpaw:  /home/buyer/miniconda3/envs/dft/lib/python3.11/site-packages/
        _gpaw.cpython-311-x86_64-linux-gnu.so
ase:    /home/buyer/miniconda3/envs/dft/lib/python3.11/site-packages/ase (version 3.29.0)
numpy:  /home/buyer/miniconda3/envs/dft/lib/python3.11/site-packages/numpy (version 2.4.6)
scipy:  /home/buyer/miniconda3/envs/dft/lib/python3.11/site-packages/scipy (version 1.17.1)
libxc:  7.0.0
units:  Angstrom and eV
cores: 1
OpenMP: True
OMP_NUM_THREADS: 1

Input parameters:
  kpts: [2 2 2]
  mode: {ecut: 600.0,
         name: pw}
  xc: PBE

System changes: positions, numbers, cell, pbc, initial_charges, initial_magmoms 

Initialize ...

species:
  Cs:
    name: Caesium
    id: fa822afd343f47335d508b9ee4f394c3
    Z: 55.0
    valence: 9
    core: 46
    charge: 0.0
    file: /home/buyer/miniconda3/envs/dft/lib/python3.11/site-packages/gpaw_data/setups/Cs.PBE.gz
    compensation charges: {type: gauss,
                           rc: 0.33,
                           lmax: 2}
    cutoffs: {filter: 2.06,
              core: 2.51}
    projectors:
      #              energy  rcut
      - 5s(2.00)   -26.706   1.164
      - 6s(1.00)    -2.085   1.164
      - 5p(6.00)   -13.523   1.058
      -  p          13.688   1.058
      -  d           0.000   1.058
  
    # Using partial waves for Cs as LCAO basis

  Pb:
    name: Lead
    id: 66e73b13d76dc837202bcdb13fee58e6
    Z: 82.0
    valence: 14
    core: 68
    charge: 0.0
    file: /home/buyer/miniconda3/envs/dft/lib/python3.11/site-packages/gpaw_data/setups/Pb.PBE.gz
    compensation charges: {type: gauss,
                           rc: 0.38,
                           lmax: 2}
    cutoffs: {filter: 2.36,
              core: 2.43}
    projectors:
      #              energy  rcut
      - 6s(2.00)   -11.969   1.259
      - 6p(2.00)    -3.506   1.275
      - 5d(10.00)   -21.211   1.217
      -  s          15.243   1.259
      -  p          23.705   1.275
      -  d           6.001   1.217
  
    # Using partial waves for Pb as LCAO basis

  I:
    name: Iodine
    id: 91405a398e4dfe788ff04f57531604ec
    Z: 53.0
    valence: 7
    core: 46
    charge: 0.0
    file: /home/buyer/miniconda3/envs/dft/lib/python3.11/site-packages/gpaw_data/setups/I.PBE.gz
    compensation charges: {type: gauss,
                           rc: 0.37,
                           lmax: 2}
    cutoffs: {filter: 2.06,
              core: 2.90}
    projectors:
      #              energy  rcut
      - 5s(2.00)   -17.382   1.164
      - 5p(5.00)    -7.088   1.164
      -  s           9.829   1.164
      -  p          20.123   1.164
      -  d           0.000   1.164
  
    # Using partial waves for I as LCAO basis

Reference energy: -10684034.619125  # eV

Spin-paired calculation

Convergence criteria:
 Maximum [total energy] change in last 3 cyles: 0.0005 eV / valence electron
 Maximum integral of absolute [dens]ity change: 0.0001 electrons / valence electron
 Maximum integral of absolute [eigenst]ate change: 4e-08 eV^2 / valence electron
 Maximum number of scf [iter]ations: 333
 (Square brackets indicate name in SCF output, whereas a 'c' in
 the SCF output indicates the quantity has converged.)

Symmetries present (total): 1

  ( 1  0  0)
  ( 0  1  0)
  ( 0  0  1)

8 k-points: 2 x 2 x 2 Monkhorst-Pack grid
4 k-points in the irreducible part of the Brillouin zone
       k-points in crystal coordinates                weights
   0:     0.25000000   -0.25000000   -0.25000000          2/8
   1:     0.25000000   -0.25000000    0.25000000          2/8
   2:     0.25000000    0.25000000   -0.25000000          2/8
   3:     0.25000000    0.25000000    0.25000000          2/8

Wave functions: Plane wave expansion
  Cutoff energy: 600.000 eV
  Number of coefficients (min, max): 69650, 69650
  Pulay-stress correction: 0.000000 eV/Ang^3 (de/decut=0.000000)
  Using FFTW library
  ScaLapack parameters: grid=1x1, blocksize=None
  Wavefunction extrapolation:
    Improved wavefunction reuse through dual PAW basis 

Occupation numbers: Fermi-Dirac:
  width: 0.1000  # eV
 

Eigensolver
   Davidson(niter=2) 

Densities:
  Coarse grid: 75*75*75 grid
  Fine grid: 150*150*150 grid
  Total Charge: 0.000000 

Density mixing:
  Method: separate
  Backend: pulay
  Linear mixing parameter: 0.05
  old densities: 5
  Damping of long wavelength oscillations: 50 

Hamiltonian:
  XC and Coulomb potentials evaluated on a 150*150*150 grid
  Using the PBE Exchange-Correlation functional
  External potential:
    NoExternalPotential
 

XC parameters: PBE with 2 nearest neighbor stencil

Memory estimate:
  Process memory now: 5029.58 MiB
  Calculator: 1460.82 MiB
    Density: 227.10 MiB
      Arrays: 83.68 MiB
      Localized functions: 111.23 MiB
      Mixer: 32.19 MiB
    Hamiltonian: 57.72 MiB
      Arrays: 54.72 MiB
      XC: 0.00 MiB
      Poisson: 0.00 MiB
      vbar: 3.01 MiB
    Wavefunctions: 1175.99 MiB
      Arrays psit_nG: 867.22 MiB
      Eigensolver: 228.48 MiB
      Projections: 6.81 MiB
      Projectors: 53.14 MiB
      PW-descriptor: 20.34 MiB

Total number of cores used: 1

Number of atoms: 39
Number of atomic orbitals: 204
Number of bands in calculation: 204
Number of valence electrons: 345
Bands to converge: occupied

... initialized

Initializing position-dependent things.

Density initialized from atomic densities
Creating initial wave functions:
  204 bands from LCAO basis set

         .-----------------------------Cs  
        /|                              |  
       / |                              |  
      /  |                              |  
     /   |                      I   Cs  |  
    /    |                              |  
   /     |     Pb      I  I   Pb      I |  
  /      |                              |  
 *       Cs I               I           |  
 |       |                              |  
 |       |Pb   I  I       Pb   I  I     |  
 |       |                              |  
 |   Cs  I          Cs                  |  
 |       |                              |  
 |     I |I    Pb      I  I    Pb       |  
 |       |                              |  
 |       .---I---Cs------Cs--I----------.  
 |      /                              /   
 |     /   Pb  I   I      Pb  I       /    
 |    /                              /     
 |   /   I           Cs  I          /      
 |  /I                             /       
 | /                              /        
 |/                              /         
 *------------------------------*          

Atomic positions and initial magnetic moments

Positions:
   0 Cs    -0.132161   -0.289842   -0.124558    ( 0.0000,  0.0000,  0.0000)
   1 Pb     3.255569    3.194999    3.242501    ( 0.0000,  0.0000,  0.0000)
   2 I      1.008883    3.195067    1.115965    ( 0.0000,  0.0000,  0.0000)
   3 I      3.393850    0.033114    3.394658    ( 0.0000,  0.0000,  0.0000)
   4 Cs     0.060191   -0.239824    6.653501    ( 0.0000,  0.0000,  0.0000)
   5 Pb     3.055989    3.194995    9.559872    ( 0.0000,  0.0000,  0.0000)
   6 I      3.089362    3.194748    6.469197    ( 0.0000,  0.0000,  0.0000)
   7 I     -0.102802    3.194992    9.265221    ( 0.0000,  0.0000,  0.0000)
   8 I      3.090277    0.016160    9.755618    ( 0.0000,  0.0000,  0.0000)
   9 Cs    -0.132222    6.679876   -0.124611    ( 0.0000,  0.0000,  0.0000)
  10 Pb     3.288085    9.584989    3.287500    ( 0.0000,  0.0000,  0.0000)
  11 I      3.277514    9.584704    0.098767    ( 0.0000,  0.0000,  0.0000)
  12 I      0.098802    9.584993    3.240793    ( 0.0000,  0.0000,  0.0000)
  13 I      3.393756    6.356881    3.395223    ( 0.0000,  0.0000,  0.0000)
  14 Cs     0.060236    6.629862    6.653461    ( 0.0000,  0.0000,  0.0000)
  15 Pb     3.219292    9.585012    9.689772    ( 0.0000,  0.0000,  0.0000)
  16 I      3.172303    9.585293    6.493913    ( 0.0000,  0.0000,  0.0000)
  17 I     -0.000622    9.585017    9.656653    ( 0.0000,  0.0000,  0.0000)
  18 I      3.090245    6.373861    9.755050    ( 0.0000,  0.0000,  0.0000)
  19 Cs     6.648336   -0.215382    0.053598    ( 0.0000,  0.0000,  0.0000)
  20 Pb     9.582912    3.195012    3.055385    ( 0.0000,  0.0000,  0.0000)
  21 I      9.341850    3.195049   -0.102752    ( 0.0000,  0.0000,  0.0000)
  22 I      6.483371    3.195026    3.011834    ( 0.0000,  0.0000,  0.0000)
  23 I      9.754270    0.014387    3.102605    ( 0.0000,  0.0000,  0.0000)
  24 Cs     6.395437    0.071298    6.390008    ( 0.0000,  0.0000,  0.0000)
  25 Pb     9.484490    3.195004    9.480818    ( 0.0000,  0.0000,  0.0000)
  26 I      9.362350    3.194972    6.261393    ( 0.0000,  0.0000,  0.0000)
  27 I      6.257245    3.195025    9.491799    ( 0.0000,  0.0000,  0.0000)
  28 I      9.561758   -0.009031    9.559679    ( 0.0000,  0.0000,  0.0000)
  29 Cs     6.648429    6.605409    0.053587    ( 0.0000,  0.0000,  0.0000)
  30 Pb     9.688275    9.585010    3.221882    ( 0.0000,  0.0000,  0.0000)
  31 I      9.618397    9.584988    0.002395    ( 0.0000,  0.0000,  0.0000)
  32 I      6.493528    9.584996    3.221138    ( 0.0000,  0.0000,  0.0000)
  33 I      9.754234    6.375633    3.102655    ( 0.0000,  0.0000,  0.0000)
  34 Cs     6.395458    6.318696    6.390072    ( 0.0000,  0.0000,  0.0000)
  35 Pb     9.566014    9.585010    9.569140    ( 0.0000,  0.0000,  0.0000)
  36 I      9.700585    9.585034    6.396303    ( 0.0000,  0.0000,  0.0000)
  37 I      6.392572    9.584986    9.652776    ( 0.0000,  0.0000,  0.0000)
  38 I      9.561778    6.399045    9.559627    ( 0.0000,  0.0000,  0.0000)

Unit cell:
           periodic     x           y           z      points  spacing
  1. axis:    yes   12.780000    0.000000    0.000000    75     0.1704
  2. axis:    yes    0.000000   12.780000    0.000000    75     0.1704
  3. axis:    yes    0.000000    0.000000   12.780000    75     0.1704

  Lengths:  12.780000  12.780000  12.780000
  Angles:   90.000000  90.000000  90.000000

Effective grid spacing dv^(1/3) = 0.1704

     iter     time        total  log10-change:
                         energy   eigst   dens
iter:   1 19:03:35  -113.397265
iter:   2 19:04:29  -112.863474   -1.41  -1.30
iter:   3 19:05:23  -110.682249   -2.03  -1.34
iter:   4 19:06:17  -110.337387   -1.99  -1.53
iter:   5 19:07:10  -110.300514   -2.80  -1.73
iter:   6 19:08:03  -110.243037c  -3.63  -2.09
iter:   7 19:08:55  -110.180492c  -3.54  -2.29
iter:   8 19:09:47  -110.180533c  -4.53  -2.41
iter:   9 19:10:40  -110.184332c  -4.52  -2.66
iter:  10 19:11:34  -110.184836c  -5.23  -2.91
iter:  11 19:12:30  -110.184308c  -6.14  -3.15
iter:  12 19:13:23  -110.184359c  -5.65  -3.18
iter:  13 19:14:16  -110.184528c  -5.98  -3.36
iter:  14 19:15:08  -110.184255c  -6.66  -3.49
iter:  15 19:16:03  -110.184135c  -6.71  -3.56
iter:  16 19:16:55  -110.184818c  -6.60  -3.63
iter:  17 19:17:48  -110.184756c  -7.16  -4.05c
iter:  18 19:18:42  -110.184484c  -7.56c -4.22c

Converged after 18 iterations.

Dipole moment: (12.733829, 70.366893, 14.546436) |e|*Ang

Energy contributions relative to reference atoms: (reference = -10684034.619125)

Kinetic:       +197.898868
Potential:     -204.601793
External:        +0.000000
XC:            -102.454317
Entropy (-ST):   -0.221191
Local:           -0.916646
SIC:             +0.000000
--------------------------
Free energy:   -110.295079
Extrapolated:  -110.184484

Showing only first 2 kpts
 Kpt  Band  Eigenvalues  Occupancy
  0   170      1.09521    2.00000
  0   171      1.24640    2.00000
  0   172      3.65313    0.95329
  0   173      3.97624    0.06947

  1   170      1.09649    2.00000
  1   171      1.23697    2.00000
  1   172      3.70742    0.69210
  1   173      3.95638    0.08410


Fermi level: 3.64378

Gap: 2.407 eV
Transition (v -> c):
  (s=0, k=0, n=171, [0.25, -0.25, -0.25]) -> (s=0, k=2, n=172, [0.25, 0.25, -0.25])
Direct/indirect transitions are different
Direct gap: 2.407 eV
Transition at: (s=0, k=2, n=171, [0.25, 0.25, -0.25])
Timing:                              incl.     excl.
-----------------------------------------------------------
Hamiltonian:                         2.812     0.010   0.0% |
 Atomic:                             0.968     0.002   0.0% |
  XC Correction:                     0.966     0.966   0.0% |
 Calculate atomic Hamiltonians:      1.092     1.092   0.1% |
 Communicate:                        0.000     0.000   0.0% |
 Initialize Hamiltonian:             0.001     0.001   0.0% |
 Poisson:                            0.013     0.013   0.0% |
 XC 3D grid:                         0.728     0.728   0.0% |
LCAO initialization:                67.286     0.084   0.0% |
 LCAO eigensolver:                   0.820     0.000   0.0% |
  Calculate projections:             0.005     0.005   0.0% |
  DenseAtomicCorrection:             0.011     0.011   0.0% |
  Distribute overlap matrix:         0.001     0.001   0.0% |
  Orbital Layouts:                   0.050     0.050   0.0% |
  Potential matrix:                  0.700     0.700   0.0% |
  Sum over cells:                    0.053     0.053   0.0% |
 LCAO to grid:                      65.936    65.936   3.0% ||
 Set positions (LCAO WFS):           0.446     0.057   0.0% |
  Basic WFS set positions:           0.001     0.001   0.0% |
  Basis functions set positions:     0.000     0.000   0.0% |
  P tci:                             0.311     0.311   0.0% |
  ST tci:                            0.070     0.070   0.0% |
  mktci:                             0.007     0.007   0.0% |
PWDescriptor:                        0.062     0.062   0.0% |
SCF-cycle:                         956.420     0.038   0.0% |
 Davidson:                         825.783   139.270   6.4% |--|
  Apply H:                         135.477   132.465   6.1% |-|
   HMM T:                            3.011     3.011   0.1% |
  Subspace diag:                   168.847     0.010   0.0% |
   calc_h_matrix:                  151.958    15.631   0.7% |
    Apply H:                       136.327   132.726   6.1% |-|
     HMM T:                          3.601     3.601   0.2% |
   diagonalize:                      2.535     2.535   0.1% |
   rotate_psi:                      14.343    14.343   0.7% |
  calc. matrices:                  340.786    67.890   3.1% ||
   Apply H:                        272.896   266.834  12.3% |----|
    HMM T:                           6.062     6.062   0.3% |
  diagonalize:                      14.648    14.648   0.7% |
  rotate_psi:                       26.755    26.755   1.2% |
 Density:                           84.257     0.001   0.0% |
  Atomic density matrices:           0.111     0.111   0.0% |
  Mix:                              20.686    20.686   1.0% |
  Multipole moments:                 0.006     0.006   0.0% |
  Pseudo density:                   63.454    63.454   2.9% ||
   Symmetrize density:               0.000     0.000   0.0% |
 Hamiltonian:                       43.765     0.147   0.0% |
  Atomic:                           15.703     0.037   0.0% |
   XC Correction:                   15.665    15.665   0.7% |
  Calculate atomic Hamiltonians:    17.161    17.161   0.8% |
  Communicate:                       0.000     0.000   0.0% |
  Poisson:                           0.188     0.188   0.0% |
  XC 3D grid:                       10.566    10.566   0.5% |
 Orthonormalize:                     2.577     0.001   0.0% |
  calc_s_matrix:                     0.217     0.217   0.0% |
  inverse-cholesky:                  0.006     0.006   0.0% |
  projections:                       1.836     1.836   0.1% |
  rotate_psi_s:                      0.517     0.517   0.0% |
Set symmetry:                        0.000     0.000   0.0% |
Other:                            1139.830  1139.830  52.6% |--------------------|
-----------------------------------------------------------
Total:                                      2166.411 100.0%

Memory usage: 9.83 GiB
Date: Thu Jul 16 19:37:37 2026
