
  ___ ___ ___ _ _ _  
 |   |   |_  | | | | 
 | | | | | . | | | | 
 |__ |  _|___|_____|  25.7.0
 |___|_|             

User:   buyer@DESKTOP-3EQA59H
Date:   Thu Jul 16 18:43:20 2026
Arch:   x86_64
Pid:    22027
CWD:    /mnt/c/Users/Buyer/dft-si
Python: 3.11.15
gpaw:   /home/buyer/miniconda3/envs/dft/lib/python3.11/site-packages/gpaw
_gpaw:  /home/buyer/miniconda3/envs/dft/lib/python3.11/site-packages/
        _gpaw.cpython-311-x86_64-linux-gnu.so
ase:    /home/buyer/miniconda3/envs/dft/lib/python3.11/site-packages/ase (version 3.29.0)
numpy:  /home/buyer/miniconda3/envs/dft/lib/python3.11/site-packages/numpy (version 2.4.6)
scipy:  /home/buyer/miniconda3/envs/dft/lib/python3.11/site-packages/scipy (version 1.17.1)
libxc:  7.0.0
units:  Angstrom and eV
cores: 1
OpenMP: True
OMP_NUM_THREADS: 1

Input parameters:
  kpts: [2 2 2]
  mode: {ecut: 600.0,
         name: pw}
  xc: PBE

System changes: positions, numbers, cell, pbc, initial_charges, initial_magmoms 

Initialize ...

species:
  Cs:
    name: Caesium
    id: fa822afd343f47335d508b9ee4f394c3
    Z: 55.0
    valence: 9
    core: 46
    charge: 0.0
    file: /home/buyer/miniconda3/envs/dft/lib/python3.11/site-packages/gpaw_data/setups/Cs.PBE.gz
    compensation charges: {type: gauss,
                           rc: 0.33,
                           lmax: 2}
    cutoffs: {filter: 2.06,
              core: 2.51}
    projectors:
      #              energy  rcut
      - 5s(2.00)   -26.706   1.164
      - 6s(1.00)    -2.085   1.164
      - 5p(6.00)   -13.523   1.058
      -  p          13.688   1.058
      -  d           0.000   1.058
  
    # Using partial waves for Cs as LCAO basis

  Pb:
    name: Lead
    id: 66e73b13d76dc837202bcdb13fee58e6
    Z: 82.0
    valence: 14
    core: 68
    charge: 0.0
    file: /home/buyer/miniconda3/envs/dft/lib/python3.11/site-packages/gpaw_data/setups/Pb.PBE.gz
    compensation charges: {type: gauss,
                           rc: 0.38,
                           lmax: 2}
    cutoffs: {filter: 2.36,
              core: 2.43}
    projectors:
      #              energy  rcut
      - 6s(2.00)   -11.969   1.259
      - 6p(2.00)    -3.506   1.275
      - 5d(10.00)   -21.211   1.217
      -  s          15.243   1.259
      -  p          23.705   1.275
      -  d           6.001   1.217
  
    # Using partial waves for Pb as LCAO basis

  I:
    name: Iodine
    id: 91405a398e4dfe788ff04f57531604ec
    Z: 53.0
    valence: 7
    core: 46
    charge: 0.0
    file: /home/buyer/miniconda3/envs/dft/lib/python3.11/site-packages/gpaw_data/setups/I.PBE.gz
    compensation charges: {type: gauss,
                           rc: 0.37,
                           lmax: 2}
    cutoffs: {filter: 2.06,
              core: 2.90}
    projectors:
      #              energy  rcut
      - 5s(2.00)   -17.382   1.164
      - 5p(5.00)    -7.088   1.164
      -  s           9.829   1.164
      -  p          20.123   1.164
      -  d           0.000   1.164
  
    # Using partial waves for I as LCAO basis

Reference energy: -10684034.619125  # eV

Spin-paired calculation

Convergence criteria:
 Maximum [total energy] change in last 3 cyles: 0.0005 eV / valence electron
 Maximum integral of absolute [dens]ity change: 0.0001 electrons / valence electron
 Maximum integral of absolute [eigenst]ate change: 4e-08 eV^2 / valence electron
 Maximum number of scf [iter]ations: 333
 (Square brackets indicate name in SCF output, whereas a 'c' in
 the SCF output indicates the quantity has converged.)

Symmetries present (total): 1

  ( 1  0  0)
  ( 0  1  0)
  ( 0  0  1)

8 k-points: 2 x 2 x 2 Monkhorst-Pack grid
4 k-points in the irreducible part of the Brillouin zone
       k-points in crystal coordinates                weights
   0:     0.25000000   -0.25000000   -0.25000000          2/8
   1:     0.25000000   -0.25000000    0.25000000          2/8
   2:     0.25000000    0.25000000   -0.25000000          2/8
   3:     0.25000000    0.25000000    0.25000000          2/8

Wave functions: Plane wave expansion
  Cutoff energy: 600.000 eV
  Number of coefficients (min, max): 69650, 69650
  Pulay-stress correction: 0.000000 eV/Ang^3 (de/decut=0.000000)
  Using FFTW library
  ScaLapack parameters: grid=1x1, blocksize=None
  Wavefunction extrapolation:
    Improved wavefunction reuse through dual PAW basis 

Occupation numbers: Fermi-Dirac:
  width: 0.1000  # eV
 

Eigensolver
   Davidson(niter=2) 

Densities:
  Coarse grid: 75*75*75 grid
  Fine grid: 150*150*150 grid
  Total Charge: 0.000000 

Density mixing:
  Method: separate
  Backend: pulay
  Linear mixing parameter: 0.05
  old densities: 5
  Damping of long wavelength oscillations: 50 

Hamiltonian:
  XC and Coulomb potentials evaluated on a 150*150*150 grid
  Using the PBE Exchange-Correlation functional
  External potential:
    NoExternalPotential
 

XC parameters: PBE with 2 nearest neighbor stencil

Memory estimate:
  Process memory now: 2497.73 MiB
  Calculator: 1460.82 MiB
    Density: 227.10 MiB
      Arrays: 83.68 MiB
      Localized functions: 111.23 MiB
      Mixer: 32.19 MiB
    Hamiltonian: 57.72 MiB
      Arrays: 54.72 MiB
      XC: 0.00 MiB
      Poisson: 0.00 MiB
      vbar: 3.01 MiB
    Wavefunctions: 1175.99 MiB
      Arrays psit_nG: 867.22 MiB
      Eigensolver: 228.48 MiB
      Projections: 6.81 MiB
      Projectors: 53.14 MiB
      PW-descriptor: 20.34 MiB

Total number of cores used: 1

Number of atoms: 39
Number of atomic orbitals: 204
Number of bands in calculation: 204
Number of valence electrons: 345
Bands to converge: occupied

... initialized

Initializing position-dependent things.

Density initialized from atomic densities
Creating initial wave functions:
  204 bands from LCAO basis set

         .------------------------------Cs 
        /|                              |  
       / |                    I         |  
      /  |                              |  
     /   |                      I   Cs  |  
    /    |                              |  
   /   I |     Pb      I I    Pb        |  
  /      |                              |  
 *       Cs I               I           |  
 |       |                              |  
 |       |Pb   I  I       Pb   I  I     |  
 |       |                              |  
 |   Cs  I           Cs                 |  
 |       |                              |  
 |     I |I    Pb      I  I    Pb       |  
 |       |                              |  
 |       .---I---Cs------Cs--I----------.  
 |      /                              /   
 |     /   Pb  I   I      Pb          /    
 |    /                              /     
 |   I   I           Cs  I          /      
 |  /                              /       
 | /                              /        
 |/                              /         
 *------------------------------*          

Atomic positions and initial magnetic moments

Positions:
   0 Cs    -0.117283   -0.276356   -0.131882    ( 0.0000,  0.0000,  0.0000)
   1 Pb     3.287271    3.195003    3.216747    ( 0.0000,  0.0000,  0.0000)
   2 I      0.658163    3.195050    1.492456    ( 0.0000,  0.0000,  0.0000)
   3 I      3.412048    0.029055    3.361171    ( 0.0000,  0.0000,  0.0000)
   4 Cs     0.042106   -0.217029    6.646714    ( 0.0000,  0.0000,  0.0000)
   5 Pb     3.090611    3.194992    9.456028    ( 0.0000,  0.0000,  0.0000)
   6 I      2.958601    3.194753    6.368705    ( 0.0000,  0.0000,  0.0000)
   7 I     -0.080261    3.194999    9.426108    ( 0.0000,  0.0000,  0.0000)
   8 I      3.098527    0.028423    9.763302    ( 0.0000,  0.0000,  0.0000)
   9 Cs    -0.117343    6.666382   -0.131937    ( 0.0000,  0.0000,  0.0000)
  10 Pb     3.294354    9.584991    3.280936    ( 0.0000,  0.0000,  0.0000)
  11 I      3.281975    9.584701    0.089009    ( 0.0000,  0.0000,  0.0000)
  12 I      0.103371    9.584991    3.235465    ( 0.0000,  0.0000,  0.0000)
  13 I      3.411954    6.360947    3.361749    ( 0.0000,  0.0000,  0.0000)
  14 Cs     0.042160    6.607059    6.646672    ( 0.0000,  0.0000,  0.0000)
  15 Pb     3.224195    9.585017    9.680739    ( 0.0000,  0.0000,  0.0000)
  16 I      3.181642    9.585302    6.487390    ( 0.0000,  0.0000,  0.0000)
  17 I      0.003038    9.585015    9.651650    ( 0.0000,  0.0000,  0.0000)
  18 I      3.098497    6.361606    9.762723    ( 0.0000,  0.0000,  0.0000)
  19 Cs     6.654465   -0.238797    0.072158    ( 0.0000,  0.0000,  0.0000)
  20 Pb     9.683624    3.195012    3.011957    ( 0.0000,  0.0000,  0.0000)
  21 I      9.192584    3.195046   -0.121519    ( 0.0000,  0.0000,  0.0000)
  22 I      6.532456    3.195018    3.161214    ( 0.0000,  0.0000,  0.0000)
  23 I      9.766781    0.012442    3.084361    ( 0.0000,  0.0000,  0.0000)
  24 Cs     6.420779    0.076284    6.361216    ( 0.0000,  0.0000,  0.0000)
  25 Pb     9.494770    3.195004    9.467685    ( 0.0000,  0.0000,  0.0000)
  26 I      9.581975    3.194976    6.236158    ( 0.0000,  0.0000,  0.0000)
  27 I      6.277450    3.195014    9.282252    ( 0.0000,  0.0000,  0.0000)
  28 I      9.563910   -0.006294    9.557817    ( 0.0000,  0.0000,  0.0000)
  29 Cs     6.654554    6.628829    0.072154    ( 0.0000,  0.0000,  0.0000)
  30 Pb     9.699386    9.585010    3.214656    ( 0.0000,  0.0000,  0.0000)
  31 I      9.627280    9.584987   -0.002934    ( 0.0000,  0.0000,  0.0000)
  32 I      6.505917    9.584996    3.213683    ( 0.0000,  0.0000,  0.0000)
  33 I      9.766744    6.377578    3.084409    ( 0.0000,  0.0000,  0.0000)
  34 Cs     6.420802    6.313718    6.361284    ( 0.0000,  0.0000,  0.0000)
  35 Pb     9.569578    9.585010    9.564768    ( 0.0000,  0.0000,  0.0000)
  36 I      9.693186    9.585033    6.389601    ( 0.0000,  0.0000,  0.0000)
  37 I      6.397904    9.584987    9.658756    ( 0.0000,  0.0000,  0.0000)
  38 I      9.563926    6.396309    9.557768    ( 0.0000,  0.0000,  0.0000)

Unit cell:
           periodic     x           y           z      points  spacing
  1. axis:    yes   12.780000    0.000000    0.000000    75     0.1704
  2. axis:    yes    0.000000   12.780000    0.000000    75     0.1704
  3. axis:    yes    0.000000    0.000000   12.780000    75     0.1704

  Lengths:  12.780000  12.780000  12.780000
  Angles:   90.000000  90.000000  90.000000

Effective grid spacing dv^(1/3) = 0.1704

     iter     time        total  log10-change:
                         energy   eigst   dens
iter:   1 18:45:24  -113.457547
iter:   2 18:46:18  -112.922319   -1.42  -1.30
iter:   3 18:47:12  -110.733762   -2.02  -1.34
iter:   4 18:48:06  -110.385816   -1.99  -1.53
iter:   5 18:48:59  -110.338276   -2.86  -1.73
iter:   6 18:49:52  -110.289618c  -3.61  -2.09
iter:   7 18:50:46  -110.229623c  -3.64  -2.29
iter:   8 18:51:41  -110.231997c  -4.57  -2.43
iter:   9 18:52:35  -110.232645c  -4.56  -2.64
iter:  10 18:53:28  -110.234866c  -5.16  -2.93
iter:  11 18:54:21  -110.234200c  -6.04  -3.15
iter:  12 18:55:14  -110.233672c  -6.36  -3.19
iter:  13 18:56:07  -110.234231c  -5.69  -3.25
iter:  14 18:57:00  -110.234207c  -6.52  -3.49
iter:  15 18:57:55  -110.234433c  -6.72  -3.52
iter:  16 18:58:49  -110.234467c  -6.44  -3.60
iter:  17 18:59:44  -110.234466c  -7.46c -3.70
iter:  18 19:00:38  -110.234642c  -6.43  -3.76
iter:  19 19:01:31  -110.234570c  -7.65c -4.36c

Converged after 19 iterations.

Dipole moment: (0.250742, 68.182033, 18.267988) |e|*Ang

Energy contributions relative to reference atoms: (reference = -10684034.619125)

Kinetic:       +196.647845
Potential:     -203.605413
External:        +0.000000
XC:            -102.237007
Entropy (-ST):   -0.220981
Local:           -0.929504
SIC:             +0.000000
--------------------------
Free energy:   -110.345061
Extrapolated:  -110.234570

Showing only first 2 kpts
 Kpt  Band  Eigenvalues  Occupancy
  0   170      1.09014    2.00000
  0   171      1.23162    2.00000
  0   172      3.65232    0.94127
  0   173      3.97605    0.06747

  1   170      1.09726    2.00000
  1   171      1.22424    2.00000
  1   172      3.70048    0.70906
  1   173      3.95746    0.08070


Fermi level: 3.64056

Gap: 2.421 eV
Transition (v -> c):
  (s=0, k=0, n=171, [0.25, -0.25, -0.25]) -> (s=0, k=2, n=172, [0.25, 0.25, -0.25])
Direct/indirect transitions are different
Direct gap: 2.421 eV
Transition at: (s=0, k=2, n=171, [0.25, 0.25, -0.25])
Timing:                              incl.     excl.
-----------------------------------------------------------
Hamiltonian:                         2.622     0.009   0.0% |
 Atomic:                             0.912     0.002   0.0% |
  XC Correction:                     0.910     0.910   0.0% |
 Calculate atomic Hamiltonians:      1.100     1.100   0.0% |
 Communicate:                        0.000     0.000   0.0% |
 Initialize Hamiltonian:             0.001     0.001   0.0% |
 Poisson:                            0.011     0.011   0.0% |
 XC 3D grid:                         0.589     0.589   0.0% |
LCAO initialization:                69.779     0.090   0.0% |
 LCAO eigensolver:                   0.769     0.000   0.0% |
  Calculate projections:             0.006     0.006   0.0% |
  DenseAtomicCorrection:             0.009     0.009   0.0% |
  Distribute overlap matrix:         0.001     0.001   0.0% |
  Orbital Layouts:                   0.041     0.041   0.0% |
  Potential matrix:                  0.657     0.657   0.0% |
  Sum over cells:                    0.054     0.054   0.0% |
 LCAO to grid:                      68.382    68.382   2.1% ||
 Set positions (LCAO WFS):           0.539     0.139   0.0% |
  Basic WFS set positions:           0.000     0.000   0.0% |
  Basis functions set positions:     0.000     0.000   0.0% |
  P tci:                             0.324     0.324   0.0% |
  ST tci:                            0.068     0.068   0.0% |
  mktci:                             0.007     0.007   0.0% |
PWDescriptor:                        0.062     0.062   0.0% |
SCF-cycle:                        1014.101     0.039   0.0% |
 Davidson:                         874.949   153.278   4.7% |-|
  Apply H:                         144.233   141.022   4.3% |-|
   HMM T:                            3.211     3.211   0.1% |
  Subspace diag:                   179.033     0.011   0.0% |
   calc_h_matrix:                  160.772    16.667   0.5% |
    Apply H:                       144.105   140.585   4.3% |-|
     HMM T:                          3.520     3.520   0.1% |
   diagonalize:                      2.853     2.853   0.1% |
   rotate_psi:                      15.397    15.397   0.5% |
  calc. matrices:                  358.714    70.402   2.2% ||
   Apply H:                        288.313   281.918   8.7% |--|
    HMM T:                           6.395     6.395   0.2% |
  diagonalize:                      11.769    11.769   0.4% |
  rotate_psi:                       27.920    27.920   0.9% |
 Density:                           89.957     0.000   0.0% |
  Atomic density matrices:           0.111     0.111   0.0% |
  Mix:                              21.871    21.871   0.7% |
  Multipole moments:                 0.006     0.006   0.0% |
  Pseudo density:                   67.968    67.968   2.1% ||
   Symmetrize density:               0.000     0.000   0.0% |
 Hamiltonian:                       46.516     0.160   0.0% |
  Atomic:                           16.479     0.037   0.0% |
   XC Correction:                   16.442    16.442   0.5% |
  Calculate atomic Hamiltonians:    18.442    18.442   0.6% |
  Communicate:                       0.000     0.000   0.0% |
  Poisson:                           0.200     0.200   0.0% |
  XC 3D grid:                       11.235    11.235   0.3% |
 Orthonormalize:                     2.640     0.001   0.0% |
  calc_s_matrix:                     0.273     0.273   0.0% |
  inverse-cholesky:                  0.043     0.043   0.0% |
  projections:                       1.823     1.823   0.1% |
  rotate_psi_s:                      0.500     0.500   0.0% |
Set symmetry:                        0.000     0.000   0.0% |
Other:                            2170.759  2170.759  66.6% |--------------------------|
-----------------------------------------------------------
Total:                                      3257.324 100.0%

Memory usage: 9.83 GiB
Date: Thu Jul 16 19:37:37 2026
