
  ___ ___ ___ _ _ _  
 |   |   |_  | | | | 
 | | | | | . | | | | 
 |__ |  _|___|_____|  25.7.0
 |___|_|             

User:   buyer@DESKTOP-3EQA59H
Date:   Thu Jul 16 18:33:51 2026
Arch:   x86_64
Pid:    22027
CWD:    /mnt/c/Users/Buyer/dft-si
Python: 3.11.15
gpaw:   /home/buyer/miniconda3/envs/dft/lib/python3.11/site-packages/gpaw
_gpaw:  /home/buyer/miniconda3/envs/dft/lib/python3.11/site-packages/
        _gpaw.cpython-311-x86_64-linux-gnu.so
ase:    /home/buyer/miniconda3/envs/dft/lib/python3.11/site-packages/ase (version 3.29.0)
numpy:  /home/buyer/miniconda3/envs/dft/lib/python3.11/site-packages/numpy (version 2.4.6)
scipy:  /home/buyer/miniconda3/envs/dft/lib/python3.11/site-packages/scipy (version 1.17.1)
libxc:  7.0.0
units:  Angstrom and eV
cores: 1
OpenMP: True
OMP_NUM_THREADS: 1

Input parameters:
  kpts: [2 2 2]
  mode: {ecut: 600.0,
         name: pw}
  xc: PBE

System changes: positions, numbers, cell, pbc, initial_charges, initial_magmoms 

Initialize ...

species:
  Cs:
    name: Caesium
    id: fa822afd343f47335d508b9ee4f394c3
    Z: 55.0
    valence: 9
    core: 46
    charge: 0.0
    file: /home/buyer/miniconda3/envs/dft/lib/python3.11/site-packages/gpaw_data/setups/Cs.PBE.gz
    compensation charges: {type: gauss,
                           rc: 0.33,
                           lmax: 2}
    cutoffs: {filter: 2.06,
              core: 2.51}
    projectors:
      #              energy  rcut
      - 5s(2.00)   -26.706   1.164
      - 6s(1.00)    -2.085   1.164
      - 5p(6.00)   -13.523   1.058
      -  p          13.688   1.058
      -  d           0.000   1.058
  
    # Using partial waves for Cs as LCAO basis

  Pb:
    name: Lead
    id: 66e73b13d76dc837202bcdb13fee58e6
    Z: 82.0
    valence: 14
    core: 68
    charge: 0.0
    file: /home/buyer/miniconda3/envs/dft/lib/python3.11/site-packages/gpaw_data/setups/Pb.PBE.gz
    compensation charges: {type: gauss,
                           rc: 0.38,
                           lmax: 2}
    cutoffs: {filter: 2.36,
              core: 2.43}
    projectors:
      #              energy  rcut
      - 6s(2.00)   -11.969   1.259
      - 6p(2.00)    -3.506   1.275
      - 5d(10.00)   -21.211   1.217
      -  s          15.243   1.259
      -  p          23.705   1.275
      -  d           6.001   1.217
  
    # Using partial waves for Pb as LCAO basis

  I:
    name: Iodine
    id: 91405a398e4dfe788ff04f57531604ec
    Z: 53.0
    valence: 7
    core: 46
    charge: 0.0
    file: /home/buyer/miniconda3/envs/dft/lib/python3.11/site-packages/gpaw_data/setups/I.PBE.gz
    compensation charges: {type: gauss,
                           rc: 0.37,
                           lmax: 2}
    cutoffs: {filter: 2.06,
              core: 2.90}
    projectors:
      #              energy  rcut
      - 5s(2.00)   -17.382   1.164
      - 5p(5.00)    -7.088   1.164
      -  s           9.829   1.164
      -  p          20.123   1.164
      -  d           0.000   1.164
  
    # Using partial waves for I as LCAO basis

Reference energy: -10684034.619125  # eV

Spin-paired calculation

Convergence criteria:
 Maximum [total energy] change in last 3 cyles: 0.0005 eV / valence electron
 Maximum integral of absolute [dens]ity change: 0.0001 electrons / valence electron
 Maximum integral of absolute [eigenst]ate change: 4e-08 eV^2 / valence electron
 Maximum number of scf [iter]ations: 333
 (Square brackets indicate name in SCF output, whereas a 'c' in
 the SCF output indicates the quantity has converged.)

Symmetries present (total): 4

  ( 1  0  0)  ( 1  0  0)  ( 0  1  0)  ( 0  1  0)
  ( 0  1  0)  ( 0  1  0)  ( 1  0  0)  ( 1  0  0)
  ( 0  0  1)  ( 0  0 -1)  ( 0  0  1)  ( 0  0 -1)

8 k-points: 2 x 2 x 2 Monkhorst-Pack grid
2 k-points in the irreducible part of the Brillouin zone
       k-points in crystal coordinates                weights
   0:     0.25000000   -0.25000000    0.25000000          4/8
   1:     0.25000000    0.25000000    0.25000000          4/8

Wave functions: Plane wave expansion
  Cutoff energy: 600.000 eV
  Number of coefficients (min, max): 69650, 69650
  Pulay-stress correction: 0.000000 eV/Ang^3 (de/decut=0.000000)
  Using FFTW library
  ScaLapack parameters: grid=1x1, blocksize=None
  Wavefunction extrapolation:
    Improved wavefunction reuse through dual PAW basis 

Occupation numbers: Fermi-Dirac:
  width: 0.1000  # eV
 

Eigensolver
   Davidson(niter=2) 

Densities:
  Coarse grid: 75*75*75 grid
  Fine grid: 150*150*150 grid
  Total Charge: 0.000000 

Density mixing:
  Method: separate
  Backend: pulay
  Linear mixing parameter: 0.05
  old densities: 5
  Damping of long wavelength oscillations: 50 

Hamiltonian:
  XC and Coulomb potentials evaluated on a 150*150*150 grid
  Using the PBE Exchange-Correlation functional
  External potential:
    NoExternalPotential
 

XC parameters: PBE with 2 nearest neighbor stencil

Memory estimate:
  Process memory now: 378.40 MiB
  Calculator: 995.11 MiB
    Density: 227.10 MiB
      Arrays: 83.68 MiB
      Localized functions: 111.23 MiB
      Mixer: 32.19 MiB
    Hamiltonian: 57.72 MiB
      Arrays: 54.72 MiB
      XC: 0.00 MiB
      Poisson: 0.00 MiB
      vbar: 3.01 MiB
    Wavefunctions: 710.28 MiB
      Arrays psit_nG: 433.61 MiB
      Eigensolver: 228.48 MiB
      Projections: 3.41 MiB
      Projectors: 26.57 MiB
      PW-descriptor: 18.22 MiB

Total number of cores used: 1

Number of atoms: 39
Number of atomic orbitals: 204
Number of bands in calculation: 204
Number of valence electrons: 345
Bands to converge: occupied

... initialized

Initializing position-dependent things.

Density initialized from atomic densities
Creating initial wave functions:
  204 bands from LCAO basis set

         .------------------------------.  
        /|                              |  
       / |                              |  
      /  |                              |  
     /   |                      I       |  
    /    |                              |  
   /     |     Pb      I      Pb      I |  
  /      |                              |  
 *       |   I           Cs I           Cs 
 |       |                              |  
 | I     | Pb  I  I       Pb  I         |  
 |       |                              |  
 |       I           Cs         I   Cs  |  
 |       |                              |  
 |       | I   Pb      I  I   Pb      I |  
 |       |                              |  
 |       .---I-----------Cs-I----------Cs  
 |      /                              /   
 | I   /   Pb  I  I       Pb  I       /    
 |    /                              /     
 |   /   I           Cs             /s     
 |  /                              /       
 | /                      I       /        
 |/                              /         
 *------------------------------*          

Atomic positions and initial magnetic moments

Positions:
   0 Cs    -0.191173   -0.191173   -0.000000    ( 0.0000,  0.0000,  0.0000)
   1 Pb     3.195002    3.195002    3.300171    ( 0.0000,  0.0000,  0.0000)
   2 I      0.031403    3.195013    3.106711    ( 0.0000,  0.0000,  0.0000)
   3 I      3.195013    0.031403    3.106711    ( 0.0000,  0.0000,  0.0000)
   4 Cs    -0.027476   -0.027476    6.390000    ( 0.0000,  0.0000,  0.0000)
   5 Pb     3.195002    3.195002    9.479829    ( 0.0000,  0.0000,  0.0000)
   6 I      3.195005    3.195005    6.390000    ( 0.0000,  0.0000,  0.0000)
   7 I      0.031403    3.195013    9.673289    ( 0.0000,  0.0000,  0.0000)
   8 I      3.195013    0.031403    9.673289    ( 0.0000,  0.0000,  0.0000)
   9 Cs    -0.191181    6.581192   -0.000000    ( 0.0000,  0.0000,  0.0000)
  10 Pb     3.195001    9.585002    3.187558    ( 0.0000,  0.0000,  0.0000)
  11 I      3.195010    9.584973   -0.000000    ( 0.0000,  0.0000,  0.0000)
  12 I     -0.000158    9.584990    3.192723    ( 0.0000,  0.0000,  0.0000)
  13 I      3.195012    6.358597    3.106753    ( 0.0000,  0.0000,  0.0000)
  14 Cs    -0.027472    6.417476    6.390000    ( 0.0000,  0.0000,  0.0000)
  15 Pb     3.195001    9.585002    9.592442    ( 0.0000,  0.0000,  0.0000)
  16 I      3.195009    9.585013    6.390000    ( 0.0000,  0.0000,  0.0000)
  17 I     -0.000158    9.584990    9.587277    ( 0.0000,  0.0000,  0.0000)
  18 I      3.195012    6.358597    9.673247    ( 0.0000,  0.0000,  0.0000)
  19 Cs     6.581192   -0.191181   -0.000000    ( 0.0000,  0.0000,  0.0000)
  20 Pb     9.585002    3.195001    3.187558    ( 0.0000,  0.0000,  0.0000)
  21 I      9.584973    3.195010   -0.000000    ( 0.0000,  0.0000,  0.0000)
  22 I      6.358597    3.195012    3.106753    ( 0.0000,  0.0000,  0.0000)
  23 I      9.584990   -0.000158    3.192723    ( 0.0000,  0.0000,  0.0000)
  24 Cs     6.417476   -0.027472    6.390000    ( 0.0000,  0.0000,  0.0000)
  25 Pb     9.585002    3.195001    9.592442    ( 0.0000,  0.0000,  0.0000)
  26 I      9.585013    3.195009    6.390000    ( 0.0000,  0.0000,  0.0000)
  27 I      6.358597    3.195012    9.673247    ( 0.0000,  0.0000,  0.0000)
  28 I      9.584990   -0.000158    9.587277    ( 0.0000,  0.0000,  0.0000)
  29 Cs     6.581200    6.581200   -0.000000    ( 0.0000,  0.0000,  0.0000)
  30 Pb     9.585000    9.585000    3.216749    ( 0.0000,  0.0000,  0.0000)
  31 I      9.584981    9.584981   -0.000000    ( 0.0000,  0.0000,  0.0000)
  32 I      6.390157    9.584991    3.192725    ( 0.0000,  0.0000,  0.0000)
  33 I      9.584991    6.390157    3.192725    ( 0.0000,  0.0000,  0.0000)
  34 Cs     6.417471    6.417471    6.390000    ( 0.0000,  0.0000,  0.0000)
  35 Pb     9.585000    9.585000    9.563251    ( 0.0000,  0.0000,  0.0000)
  36 I      9.584995    9.584995    6.390000    ( 0.0000,  0.0000,  0.0000)
  37 I      6.390157    9.584991    9.587275    ( 0.0000,  0.0000,  0.0000)
  38 I      9.584991    6.390157    9.587275    ( 0.0000,  0.0000,  0.0000)

Unit cell:
           periodic     x           y           z      points  spacing
  1. axis:    yes   12.780000    0.000000    0.000000    75     0.1704
  2. axis:    yes    0.000000   12.780000    0.000000    75     0.1704
  3. axis:    yes    0.000000    0.000000   12.780000    75     0.1704

  Lengths:  12.780000  12.780000  12.780000
  Angles:   90.000000  90.000000  90.000000

Effective grid spacing dv^(1/3) = 0.1704

     iter     time        total  log10-change:
                         energy   eigst   dens
iter:   1 18:35:00  -113.472347
iter:   2 18:35:29  -112.954004   -1.41  -1.30
iter:   3 18:35:58  -110.797551   -2.03  -1.34
iter:   4 18:36:27  -110.440049   -2.00  -1.53
iter:   5 18:36:55  -110.387319   -3.02  -1.73
iter:   6 18:37:23  -110.361842c  -3.70  -2.08
iter:   7 18:37:58  -110.285241c  -3.63  -2.24
iter:   8 18:38:30  -110.290707c  -4.67  -2.47
iter:   9 18:38:59  -110.285960c  -4.84  -2.64
iter:  10 18:39:27  -110.296199c  -4.64  -2.74
iter:  11 18:39:55  -110.292137c  -5.71  -3.15
iter:  12 18:40:23  -110.291958c  -6.21  -3.27
iter:  13 18:40:52  -110.293671c  -5.88  -3.34
iter:  14 18:41:21  -110.293092c  -6.77  -3.51
iter:  15 18:41:48  -110.292385c  -6.18  -3.56
iter:  16 18:42:19  -110.292594c  -6.92  -3.83
iter:  17 18:42:50  -110.292658c  -7.52c -3.93
iter:  18 18:43:20  -110.292638c  -7.52c -4.01c

Converged after 18 iterations.

Dipole moment: (51.607626, 51.607626, -0.000000) |e|*Ang

Energy contributions relative to reference atoms: (reference = -10684034.619125)

Kinetic:       +196.285707
Potential:     -203.415933
External:        +0.000000
XC:            -102.207499
Entropy (-ST):   -0.212044
Local:           -0.848891
SIC:             +0.000000
--------------------------
Free energy:   -110.398660
Extrapolated:  -110.292638

Showing all kpts
 Kpt  Band  Eigenvalues  Occupancy
  0   170      1.06230    2.00000
  0   171      1.19109    2.00000
  0   172      3.70695    0.85262
  0   173      4.02437    0.06029

  1   170      1.06230    2.00000
  1   171      1.19109    2.00000
  1   172      3.70695    0.85262
  1   173      4.02437    0.06029


Fermi level: 3.67726

Gap: 2.516 eV
Transition (v -> c):
  (s=0, k=1, n=171, [0.25, 0.25, 0.25]) -> (s=0, k=0, n=172, [0.25, -0.25, 0.25])
Direct/indirect transitions are different
Direct gap: 2.516 eV
Transition at: (s=0, k=1, n=171, [0.25, 0.25, 0.25])
Timing:                              incl.     excl.
-----------------------------------------------------------
Hamiltonian:                         2.612     0.015   0.0% |
 Atomic:                             0.904     0.003   0.0% |
  XC Correction:                     0.901     0.901   0.0% |
 Calculate atomic Hamiltonians:      0.977     0.977   0.0% |
 Communicate:                        0.000     0.000   0.0% |
 Initialize Hamiltonian:             0.001     0.001   0.0% |
 Poisson:                            0.018     0.018   0.0% |
 XC 3D grid:                         0.697     0.697   0.0% |
LCAO initialization:                36.545     0.088   0.0% |
 LCAO eigensolver:                   0.729     0.000   0.0% |
  Calculate projections:             0.003     0.003   0.0% |
  DenseAtomicCorrection:             0.007     0.007   0.0% |
  Distribute overlap matrix:         0.001     0.001   0.0% |
  Orbital Layouts:                   0.020     0.020   0.0% |
  Potential matrix:                  0.665     0.665   0.0% |
  Sum over cells:                    0.033     0.033   0.0% |
 LCAO to grid:                      35.349    35.349   0.9% |
 Set positions (LCAO WFS):           0.379     0.122   0.0% |
  Basic WFS set positions:           0.002     0.002   0.0% |
  Basis functions set positions:     0.000     0.000   0.0% |
  P tci:                             0.189     0.189   0.0% |
  ST tci:                            0.059     0.059   0.0% |
  mktci:                             0.008     0.008   0.0% |
PWDescriptor:                        0.206     0.206   0.0% |
SCF-cycle:                         523.321     0.039   0.0% |
 Davidson:                         421.969    73.034   1.9% ||
  Apply H:                          68.818    67.287   1.8% ||
   HMM T:                            1.531     1.531   0.0% |
  Subspace diag:                    85.179     0.005   0.0% |
   calc_h_matrix:                   75.463     8.108   0.2% |
    Apply H:                        67.355    65.742   1.7% ||
     HMM T:                          1.613     1.613   0.0% |
   diagonalize:                      2.324     2.324   0.1% |
   rotate_psi:                       7.387     7.387   0.2% |
  calc. matrices:                  171.242    34.493   0.9% |
   Apply H:                        136.749   133.707   3.5% ||
    HMM T:                           3.042     3.042   0.1% |
  diagonalize:                       9.949     9.949   0.3% |
  rotate_psi:                       13.747    13.747   0.4% |
 Density:                           55.149     0.000   0.0% |
  Atomic density matrices:           0.070     0.070   0.0% |
  Mix:                              21.911    21.911   0.6% |
  Multipole moments:                 0.006     0.006   0.0% |
  Pseudo density:                   33.161    32.071   0.8% |
   Symmetrize density:               1.091     1.091   0.0% |
 Hamiltonian:                       44.888     0.162   0.0% |
  Atomic:                           15.648     0.037   0.0% |
   XC Correction:                   15.611    15.611   0.4% |
  Calculate atomic Hamiltonians:    18.005    18.005   0.5% |
  Communicate:                       0.000     0.000   0.0% |
  Poisson:                           0.210     0.210   0.0% |
  XC 3D grid:                       10.864    10.864   0.3% |
 Orthonormalize:                     1.276     0.000   0.0% |
  calc_s_matrix:                     0.161     0.161   0.0% |
  inverse-cholesky:                  0.003     0.003   0.0% |
  projections:                       0.816     0.816   0.0% |
  rotate_psi_s:                      0.296     0.296   0.0% |
Set symmetry:                        0.001     0.001   0.0% |
Other:                            3263.261  3263.261  85.3% |---------------------------------|
-----------------------------------------------------------
Total:                                      3825.945 100.0%

Memory usage: 9.83 GiB
Date: Thu Jul 16 19:37:38 2026
