
  ___ ___ ___ _ _ _  
 |   |   |_  | | | | 
 | | | | | . | | | | 
 |__ |  _|___|_____|  25.7.0
 |___|_|             

User:   buyer@DESKTOP-3EQA59H
Date:   Thu Jul 16 15:27:27 2026
Arch:   x86_64
Pid:    21514
CWD:    /mnt/c/Users/Buyer/dft-si
Python: 3.11.15
gpaw:   /home/buyer/miniconda3/envs/dft/lib/python3.11/site-packages/gpaw
_gpaw:  /home/buyer/miniconda3/envs/dft/lib/python3.11/site-packages/
        _gpaw.cpython-311-x86_64-linux-gnu.so
ase:    /home/buyer/miniconda3/envs/dft/lib/python3.11/site-packages/ase (version 3.29.0)
numpy:  /home/buyer/miniconda3/envs/dft/lib/python3.11/site-packages/numpy (version 2.4.6)
scipy:  /home/buyer/miniconda3/envs/dft/lib/python3.11/site-packages/scipy (version 1.17.1)
libxc:  7.0.0
units:  Angstrom and eV
cores: 1
OpenMP: True
OMP_NUM_THREADS: 1

Input parameters:
  kpts: [2 2 2]
  mode: {ecut: 600.0,
         name: pw}
  xc: PBE

System changes: positions, numbers, cell, pbc, initial_charges, initial_magmoms 

Initialize ...

species:
  Cs:
    name: Caesium
    id: fa822afd343f47335d508b9ee4f394c3
    Z: 55.0
    valence: 9
    core: 46
    charge: 0.0
    file: /home/buyer/miniconda3/envs/dft/lib/python3.11/site-packages/gpaw_data/setups/Cs.PBE.gz
    compensation charges: {type: gauss,
                           rc: 0.33,
                           lmax: 2}
    cutoffs: {filter: 2.06,
              core: 2.51}
    projectors:
      #              energy  rcut
      - 5s(2.00)   -26.706   1.164
      - 6s(1.00)    -2.085   1.164
      - 5p(6.00)   -13.523   1.058
      -  p          13.688   1.058
      -  d           0.000   1.058
  
    # Using partial waves for Cs as LCAO basis

  Pb:
    name: Lead
    id: 66e73b13d76dc837202bcdb13fee58e6
    Z: 82.0
    valence: 14
    core: 68
    charge: 0.0
    file: /home/buyer/miniconda3/envs/dft/lib/python3.11/site-packages/gpaw_data/setups/Pb.PBE.gz
    compensation charges: {type: gauss,
                           rc: 0.38,
                           lmax: 2}
    cutoffs: {filter: 2.36,
              core: 2.43}
    projectors:
      #              energy  rcut
      - 6s(2.00)   -11.969   1.259
      - 6p(2.00)    -3.506   1.275
      - 5d(10.00)   -21.211   1.217
      -  s          15.243   1.259
      -  p          23.705   1.275
      -  d           6.001   1.217
  
    # Using partial waves for Pb as LCAO basis

  I:
    name: Iodine
    id: 91405a398e4dfe788ff04f57531604ec
    Z: 53.0
    valence: 7
    core: 46
    charge: 0.0
    file: /home/buyer/miniconda3/envs/dft/lib/python3.11/site-packages/gpaw_data/setups/I.PBE.gz
    compensation charges: {type: gauss,
                           rc: 0.37,
                           lmax: 2}
    cutoffs: {filter: 2.06,
              core: 2.90}
    projectors:
      #              energy  rcut
      - 5s(2.00)   -17.382   1.164
      - 5p(5.00)    -7.088   1.164
      -  s           9.829   1.164
      -  p          20.123   1.164
      -  d           0.000   1.164
  
    # Using partial waves for I as LCAO basis

Reference energy: -10684034.619125  # eV

Spin-paired calculation

Convergence criteria:
 Maximum [total energy] change in last 3 cyles: 0.0005 eV / valence electron
 Maximum integral of absolute [dens]ity change: 0.0001 electrons / valence electron
 Maximum integral of absolute [eigenst]ate change: 4e-08 eV^2 / valence electron
 Maximum number of scf [iter]ations: 333
 (Square brackets indicate name in SCF output, whereas a 'c' in
 the SCF output indicates the quantity has converged.)

Symmetries present (total): 1

  ( 1  0  0)
  ( 0  1  0)
  ( 0  0  1)

8 k-points: 2 x 2 x 2 Monkhorst-Pack grid
4 k-points in the irreducible part of the Brillouin zone
       k-points in crystal coordinates                weights
   0:     0.25000000   -0.25000000   -0.25000000          2/8
   1:     0.25000000   -0.25000000    0.25000000          2/8
   2:     0.25000000    0.25000000   -0.25000000          2/8
   3:     0.25000000    0.25000000    0.25000000          2/8

Wave functions: Plane wave expansion
  Cutoff energy: 600.000 eV
  Number of coefficients (min, max): 69650, 69650
  Pulay-stress correction: 0.000000 eV/Ang^3 (de/decut=0.000000)
  Using FFTW library
  ScaLapack parameters: grid=1x1, blocksize=None
  Wavefunction extrapolation:
    Improved wavefunction reuse through dual PAW basis 

Occupation numbers: Fermi-Dirac:
  width: 0.1000  # eV
 

Eigensolver
   Davidson(niter=2) 

Densities:
  Coarse grid: 75*75*75 grid
  Fine grid: 150*150*150 grid
  Total Charge: 0.000000 

Density mixing:
  Method: separate
  Backend: pulay
  Linear mixing parameter: 0.05
  old densities: 5
  Damping of long wavelength oscillations: 50 

Hamiltonian:
  XC and Coulomb potentials evaluated on a 150*150*150 grid
  Using the PBE Exchange-Correlation functional
  External potential:
    NoExternalPotential
 

XC parameters: PBE with 2 nearest neighbor stencil

Memory estimate:
  Process memory now: 10080.50 MiB
  Calculator: 1460.82 MiB
    Density: 227.10 MiB
      Arrays: 83.68 MiB
      Localized functions: 111.23 MiB
      Mixer: 32.19 MiB
    Hamiltonian: 57.72 MiB
      Arrays: 54.72 MiB
      XC: 0.00 MiB
      Poisson: 0.00 MiB
      vbar: 3.01 MiB
    Wavefunctions: 1175.99 MiB
      Arrays psit_nG: 867.22 MiB
      Eigensolver: 228.48 MiB
      Projections: 6.81 MiB
      Projectors: 53.14 MiB
      PW-descriptor: 20.34 MiB

Total number of cores used: 1

Number of atoms: 39
Number of atomic orbitals: 204
Number of bands in calculation: 204
Number of valence electrons: 345
Bands to converge: occupied

... initialized

Initializing position-dependent things.

Density initialized from atomic densities
Creating initial wave functions:
  204 bands from LCAO basis set

         .------------------------------Cs 
        /|                              |  
       / |                              |  
      /  |                              |  
     /   |                          Cs  |  
    /    |                              |  
   /     |     Pb     I    I  Pb      I |  
  /      |                              |  
 *       Cs  I              I           |  
 |       |                              |  
 |       |Pb   I  I       Pb   I        |  
 |       |                        I     |  
 |   Cs  I          Cs  I               |  
 |       |                              |  
 |     I | I   Pb      I I    Pb        |  
 |       |                              |  
 |       .---I--Cs-------Cs--I----------.  
 |      /                              /   
 |     /   Pb  I          Pb  I       /    
 |    /           I                  /     
 |   /   I           Cs  I          /      
 |  /                              /       
 | /   I                          /        
 |/                              /         
 *------------------------------*          

Atomic positions and initial magnetic moments

Positions:
   0 Cs    -0.126894   -0.244939   -0.077930    ( 0.0000,  0.0000,  0.0000)
   1 Pb     3.206992    3.194985    3.245812    ( 0.0000,  0.0000,  0.0000)
   2 I      1.771552    3.195209    0.395624    ( 0.0000,  0.0000,  0.0000)
   3 I      3.300950    0.030589    3.391367    ( 0.0000,  0.0000,  0.0000)
   4 Cs     0.086390   -0.277448    6.631598    ( 0.0000,  0.0000,  0.0000)
   5 Pb     2.978172    3.194995    9.751738    ( 0.0000,  0.0000,  0.0000)
   6 I      3.396484    3.194520    6.530118    ( 0.0000,  0.0000,  0.0000)
   7 I     -0.130119    3.194960    8.997225    ( 0.0000,  0.0000,  0.0000)
   8 I      3.097103    0.012535    9.745603    ( 0.0000,  0.0000,  0.0000)
   9 Cs    -0.127006    6.635021   -0.078026    ( 0.0000,  0.0000,  0.0000)
  10 Pb     3.256653    9.584966    3.274880    ( 0.0000,  0.0000,  0.0000)
  11 I      3.309407    9.584426    0.087985    ( 0.0000,  0.0000,  0.0000)
  12 I      0.061866    9.585019    3.217486    ( 0.0000,  0.0000,  0.0000)
  13 I      3.300792    6.359369    3.392457    ( 0.0000,  0.0000,  0.0000)
  14 Cs     0.086422    6.667552    6.631524    ( 0.0000,  0.0000,  0.0000)
  15 Pb     3.204602    9.585007    9.687132    ( 0.0000,  0.0000,  0.0000)
  16 I      3.187271    9.585529    6.490918    ( 0.0000,  0.0000,  0.0000)
  17 I     -0.006880    9.585037    9.695929    ( 0.0000,  0.0000,  0.0000)
  18 I      3.097052    6.377471    9.744559    ( 0.0000,  0.0000,  0.0000)
  19 Cs     6.622643   -0.217471    0.003686    ( 0.0000,  0.0000,  0.0000)
  20 Pb     9.370960    3.195020    3.140672    ( 0.0000,  0.0000,  0.0000)
  21 I      9.769516    3.195076   -0.028157    ( 0.0000,  0.0000,  0.0000)
  22 I      6.305806    3.195080    2.734122    ( 0.0000,  0.0000,  0.0000)
  23 I      9.745449    0.036889    3.170463    ( 0.0000,  0.0000,  0.0000)
  24 Cs     6.328887    0.012844    6.474114    ( 0.0000,  0.0000,  0.0000)
  25 Pb     9.454172    3.195005    9.520085    ( 0.0000,  0.0000,  0.0000)
  26 I      8.980210    3.194954    6.318977    ( 0.0000,  0.0000,  0.0000)
  27 I      6.243002    3.195073    9.937530    ( 0.0000,  0.0000,  0.0000)
  28 I      9.540659    0.002687    9.552940    ( 0.0000,  0.0000,  0.0000)
  29 Cs     6.622828    6.607497    0.003651    ( 0.0000,  0.0000,  0.0000)
  30 Pb     9.648638    9.585017    3.238683    ( 0.0000,  0.0000,  0.0000)
  31 I      9.564261    9.584975    0.018275    ( 0.0000,  0.0000,  0.0000)
  32 I      6.461509    9.584978    3.324621    ( 0.0000,  0.0000,  0.0000)
  33 I      9.745446    6.353145    3.170553    ( 0.0000,  0.0000,  0.0000)
  34 Cs     6.328865    6.377099    6.474215    ( 0.0000,  0.0000,  0.0000)
  35 Pb     9.562139    9.585015    9.578514    ( 0.0000,  0.0000,  0.0000)
  36 I      9.725149    9.585072    6.410846    ( 0.0000,  0.0000,  0.0000)
  37 I      6.379866    9.584974    9.586676    ( 0.0000,  0.0000,  0.0000)
  38 I      9.540719    6.387334    9.552840    ( 0.0000,  0.0000,  0.0000)

Unit cell:
           periodic     x           y           z      points  spacing
  1. axis:    yes   12.780000    0.000000    0.000000    75     0.1704
  2. axis:    yes    0.000000   12.780000    0.000000    75     0.1704
  3. axis:    yes    0.000000    0.000000   12.780000    75     0.1704

  Lengths:  12.780000  12.780000  12.780000
  Angles:   90.000000  90.000000  90.000000

Effective grid spacing dv^(1/3) = 0.1704

     iter     time        total  log10-change:
                         energy   eigst   dens
iter:   1 15:29:42  -113.601975
iter:   2 15:30:47  -113.062648   -1.42  -1.30
iter:   3 15:32:10  -110.860849   -2.02  -1.34
iter:   4 15:33:13  -110.513024   -1.99  -1.53
iter:   5 15:34:13  -110.457615   -2.91  -1.73
iter:   6 15:35:12  -110.415928c  -3.58  -2.08
iter:   7 15:36:38  -110.354880c  -3.68  -2.30
iter:   8 15:37:50  -110.357914c  -4.70  -2.45
iter:   9 15:39:12  -110.357057c  -4.69  -2.63
iter:  10 15:40:28  -110.362098c  -5.03  -2.90
iter:  11 15:41:31  -110.360700c  -6.05  -3.18
iter:  12 15:42:29  -110.360732c  -6.23  -3.23
iter:  13 15:43:33  -110.361059c  -6.26  -3.31
iter:  14 15:44:34  -110.360954c  -7.21  -3.39
iter:  15 15:45:28  -110.360992c  -6.06  -3.42
iter:  16 15:46:37  -110.361242c  -7.15  -3.67
iter:  17 15:47:51  -110.361180c  -7.19  -3.71
iter:  18 15:49:02  -110.361038c  -7.03  -3.90
iter:  19 15:50:07  -110.361060c  -7.48c -4.15c

Converged after 19 iterations.

Dipole moment: (18.076672, 76.021158, -11.850722) |e|*Ang

Energy contributions relative to reference atoms: (reference = -10684034.619125)

Kinetic:       +192.551625
Potential:     -200.308275
External:        +0.000000
XC:            -101.589404
Entropy (-ST):   -0.228128
Local:           -0.900942
SIC:             +0.000000
--------------------------
Free energy:   -110.475124
Extrapolated:  -110.361060

Showing only first 2 kpts
 Kpt  Band  Eigenvalues  Occupancy
  0   170      1.08450    2.00000
  0   171      1.18770    2.00000
  0   172      3.66859    0.86970
  0   173      3.96191    0.07868

  1   170      1.09621    2.00000
  1   171      1.18762    2.00000
  1   172      3.69389    0.74798
  1   173      3.95883    0.08104


Fermi level: 3.64238

Gap: 2.481 eV
Transition (v -> c):
  (s=0, k=0, n=171, [0.25, -0.25, -0.25]) -> (s=0, k=2, n=172, [0.25, 0.25, -0.25])
Direct/indirect transitions are different
Direct gap: 2.481 eV
Transition at: (s=0, k=2, n=171, [0.25, 0.25, -0.25])
Timing:                              incl.     excl.
-----------------------------------------------------------
Hamiltonian:                         2.769     0.011   0.0% |
 Atomic:                             0.928     0.003   0.0% |
  XC Correction:                     0.925     0.925   0.0% |
 Calculate atomic Hamiltonians:      1.089     1.089   0.0% |
 Communicate:                        0.000     0.000   0.0% |
 Initialize Hamiltonian:             0.001     0.001   0.0% |
 Poisson:                            0.015     0.015   0.0% |
 XC 3D grid:                         0.725     0.725   0.0% |
LCAO initialization:                73.468     0.091   0.0% |
 LCAO eigensolver:                   0.945     0.001   0.0% |
  Calculate projections:             0.045     0.045   0.0% |
  DenseAtomicCorrection:             0.039     0.039   0.0% |
  Distribute overlap matrix:         0.001     0.001   0.0% |
  Orbital Layouts:                   0.107     0.107   0.0% |
  Potential matrix:                  0.697     0.697   0.0% |
  Sum over cells:                    0.055     0.055   0.0% |
 LCAO to grid:                      71.499    71.499   1.9% ||
 Set positions (LCAO WFS):           0.932     0.058   0.0% |
  Basic WFS set positions:           0.001     0.001   0.0% |
  Basis functions set positions:     0.000     0.000   0.0% |
  P tci:                             0.778     0.778   0.0% |
  ST tci:                            0.072     0.072   0.0% |
  mktci:                             0.024     0.024   0.0% |
PWDescriptor:                        0.108     0.108   0.0% |
SCF-cycle:                        1278.486     0.095   0.0% |
 Davidson:                        1124.745   221.432   6.0% |-|
  Apply H:                         158.447   154.845   4.2% |-|
   HMM T:                            3.603     3.603   0.1% |
  Subspace diag:                   204.619     0.012   0.0% |
   calc_h_matrix:                  177.361    19.238   0.5% |
    Apply H:                       158.123   154.233   4.2% |-|
     HMM T:                          3.889     3.889   0.1% |
   diagonalize:                      8.706     8.706   0.2% |
   rotate_psi:                      18.540    18.540   0.5% |
  calc. matrices:                  423.476   103.419   2.8% ||
   Apply H:                        320.057   312.871   8.5% |--|
    HMM T:                           7.186     7.186   0.2% |
  diagonalize:                      81.974    81.974   2.2% ||
  rotate_psi:                       34.796    34.796   0.9% |
 Density:                          100.288     0.000   0.0% |
  Atomic density matrices:           0.119     0.119   0.0% |
  Mix:                              24.407    24.407   0.7% |
  Multipole moments:                 0.007     0.007   0.0% |
  Pseudo density:                   75.755    75.755   2.1% ||
   Symmetrize density:               0.000     0.000   0.0% |
 Hamiltonian:                       50.551     0.168   0.0% |
  Atomic:                           16.965     0.044   0.0% |
   XC Correction:                   16.922    16.922   0.5% |
  Calculate atomic Hamiltonians:    21.194    21.194   0.6% |
  Communicate:                       0.000     0.000   0.0% |
  Poisson:                           0.215     0.215   0.0% |
  XC 3D grid:                       12.009    12.009   0.3% |
 Orthonormalize:                     2.807     0.001   0.0% |
  calc_s_matrix:                     0.411     0.411   0.0% |
  inverse-cholesky:                  0.028     0.028   0.0% |
  projections:                       1.836     1.836   0.0% |
  rotate_psi_s:                      0.530     0.530   0.0% |
Set symmetry:                        0.001     0.001   0.0% |
Other:                            2323.053  2323.053  63.2% |------------------------|
-----------------------------------------------------------
Total:                                      3677.885 100.0%

Memory usage: 14.78 GiB
Date: Thu Jul 16 16:28:45 2026
