
  ___ ___ ___ _ _ _  
 |   |   |_  | | | | 
 | | | | | . | | | | 
 |__ |  _|___|_____|  25.7.0
 |___|_|             

User:   buyer@DESKTOP-3EQA59H
Date:   Mon Jul 20 12:16:20 2026
Arch:   x86_64
Pid:    39790
CWD:    /mnt/c/Users/Buyer/dft-si
Python: 3.11.15
gpaw:   /home/buyer/miniconda3/envs/dft/lib/python3.11/site-packages/gpaw
_gpaw:  /home/buyer/miniconda3/envs/dft/lib/python3.11/site-packages/
        _gpaw.cpython-311-x86_64-linux-gnu.so
ase:    /home/buyer/miniconda3/envs/dft/lib/python3.11/site-packages/ase (version 3.29.0)
numpy:  /home/buyer/miniconda3/envs/dft/lib/python3.11/site-packages/numpy (version 2.4.6)
scipy:  /home/buyer/miniconda3/envs/dft/lib/python3.11/site-packages/scipy (version 1.17.1)
libxc:  7.0.0
units:  Angstrom and eV
cores: 1
OpenMP: True
OMP_NUM_THREADS: 1

Input parameters:
  kpts: [2 2 2]
  mode: {ecut: 600.0,
         name: pw}
  xc: PBE

System changes: positions, numbers, cell, pbc, initial_charges, initial_magmoms 

Initialize ...

species:
  Cs:
    name: Caesium
    id: fa822afd343f47335d508b9ee4f394c3
    Z: 55.0
    valence: 9
    core: 46
    charge: 0.0
    file: /home/buyer/miniconda3/envs/dft/lib/python3.11/site-packages/gpaw_data/setups/Cs.PBE.gz
    compensation charges: {type: gauss,
                           rc: 0.33,
                           lmax: 2}
    cutoffs: {filter: 2.06,
              core: 2.51}
    projectors:
      #              energy  rcut
      - 5s(2.00)   -26.706   1.164
      - 6s(1.00)    -2.085   1.164
      - 5p(6.00)   -13.523   1.058
      -  p          13.688   1.058
      -  d           0.000   1.058
  
    # Using partial waves for Cs as LCAO basis

  Pb:
    name: Lead
    id: 66e73b13d76dc837202bcdb13fee58e6
    Z: 82.0
    valence: 14
    core: 68
    charge: 0.0
    file: /home/buyer/miniconda3/envs/dft/lib/python3.11/site-packages/gpaw_data/setups/Pb.PBE.gz
    compensation charges: {type: gauss,
                           rc: 0.38,
                           lmax: 2}
    cutoffs: {filter: 2.36,
              core: 2.43}
    projectors:
      #              energy  rcut
      - 6s(2.00)   -11.969   1.259
      - 6p(2.00)    -3.506   1.275
      - 5d(10.00)   -21.211   1.217
      -  s          15.243   1.259
      -  p          23.705   1.275
      -  d           6.001   1.217
  
    # Using partial waves for Pb as LCAO basis

  I:
    name: Iodine
    id: 91405a398e4dfe788ff04f57531604ec
    Z: 53.0
    valence: 7
    core: 46
    charge: 0.0
    file: /home/buyer/miniconda3/envs/dft/lib/python3.11/site-packages/gpaw_data/setups/I.PBE.gz
    compensation charges: {type: gauss,
                           rc: 0.37,
                           lmax: 2}
    cutoffs: {filter: 2.06,
              core: 2.90}
    projectors:
      #              energy  rcut
      - 5s(2.00)   -17.382   1.164
      - 5p(5.00)    -7.088   1.164
      -  s           9.829   1.164
      -  p          20.123   1.164
      -  d           0.000   1.164
  
    # Using partial waves for I as LCAO basis

Reference energy: -10684034.619125  # eV

Spin-paired calculation

Convergence criteria:
 Maximum [total energy] change in last 3 cyles: 0.0005 eV / valence electron
 Maximum integral of absolute [dens]ity change: 0.0001 electrons / valence electron
 Maximum integral of absolute [eigenst]ate change: 4e-08 eV^2 / valence electron
 Maximum number of scf [iter]ations: 333
 (Square brackets indicate name in SCF output, whereas a 'c' in
 the SCF output indicates the quantity has converged.)

Symmetries present (total): 1

  ( 1  0  0)
  ( 0  1  0)
  ( 0  0  1)

8 k-points: 2 x 2 x 2 Monkhorst-Pack grid
4 k-points in the irreducible part of the Brillouin zone
       k-points in crystal coordinates                weights
   0:     0.25000000   -0.25000000   -0.25000000          2/8
   1:     0.25000000   -0.25000000    0.25000000          2/8
   2:     0.25000000    0.25000000   -0.25000000          2/8
   3:     0.25000000    0.25000000    0.25000000          2/8

Wave functions: Plane wave expansion
  Cutoff energy: 600.000 eV
  Number of coefficients (min, max): 69650, 69650
  Pulay-stress correction: 0.000000 eV/Ang^3 (de/decut=0.000000)
  Using FFTW library
  ScaLapack parameters: grid=1x1, blocksize=None
  Wavefunction extrapolation:
    Improved wavefunction reuse through dual PAW basis 

Occupation numbers: Fermi-Dirac:
  width: 0.1000  # eV
 

Eigensolver
   Davidson(niter=2) 

Densities:
  Coarse grid: 75*75*75 grid
  Fine grid: 150*150*150 grid
  Total Charge: 0.000000 

Density mixing:
  Method: separate
  Backend: pulay
  Linear mixing parameter: 0.05
  old densities: 5
  Damping of long wavelength oscillations: 50 

Hamiltonian:
  XC and Coulomb potentials evaluated on a 150*150*150 grid
  Using the PBE Exchange-Correlation functional
  External potential:
    NoExternalPotential
 

XC parameters: PBE with 2 nearest neighbor stencil

Memory estimate:
  Process memory now: 2502.47 MiB
  Calculator: 1460.82 MiB
    Density: 227.10 MiB
      Arrays: 83.68 MiB
      Localized functions: 111.23 MiB
      Mixer: 32.19 MiB
    Hamiltonian: 57.72 MiB
      Arrays: 54.72 MiB
      XC: 0.00 MiB
      Poisson: 0.00 MiB
      vbar: 3.01 MiB
    Wavefunctions: 1175.99 MiB
      Arrays psit_nG: 867.22 MiB
      Eigensolver: 228.48 MiB
      Projections: 6.81 MiB
      Projectors: 53.14 MiB
      PW-descriptor: 20.34 MiB

Total number of cores used: 1

Number of atoms: 39
Number of atomic orbitals: 204
Number of bands in calculation: 204
Number of valence electrons: 345
Bands to converge: occupied

... initialized

Initializing position-dependent things.

Density initialized from atomic densities
Creating initial wave functions:
  204 bands from LCAO basis set

         .------------------------------Cs 
        /|                              |  
       / |     I              I         |  
      /  |                              |  
     /   |                          Cs  |  
    /    |                              |  
   /   I |     Pb      I I    Pb        |  
  /      |                              |  
 *       |   I           Cs I           Cs 
 | I     |                              |  
 |       | Pb  I          Pb  I         |  
 |       |        I                     |  
 |       I           Cs I       I   Cs  |  
 |       |                              |  
 |     I |I    Pb      I   I  Pb        |  
 |       |                              |  
 |       .---I-----------Cs-I-----------.  
 |      /                              /   
 |     /   Pb      I      Pb          /    
 | I  /                              /     
 |   /   I           Cs             /      
 |  /                              /       
 | /                              /        
 |/                              /         
 *------------------------------*          

Atomic positions and initial magnetic moments

Positions:
   0 Cs    -0.149571   -0.158803   -0.008916    ( 0.0000,  0.0000,  0.0000)
   1 Pb     3.192900    3.195001    3.309872    ( 0.0000,  0.0000,  0.0000)
   2 I      0.067335    3.195034    2.739989    ( 0.0000,  0.0000,  0.0000)
   3 I      3.229510    0.031983    3.105271    ( 0.0000,  0.0000,  0.0000)
   4 Cs    -0.016022   -0.064965    6.388315    ( 0.0000,  0.0000,  0.0000)
   5 Pb     3.199778    3.194999    9.453557    ( 0.0000,  0.0000,  0.0000)
   6 I      2.827718    3.194863    6.379276    ( 0.0000,  0.0000,  0.0000)
   7 I      0.049895    3.195017   10.040294    ( 0.0000,  0.0000,  0.0000)
   8 I      3.213620    0.037287    9.684060    ( 0.0000,  0.0000,  0.0000)
   9 Cs    -0.149612    6.548819   -0.008925    ( 0.0000,  0.0000,  0.0000)
  10 Pb     3.211841    9.585010    3.187533    ( 0.0000,  0.0000,  0.0000)
  11 I      3.222093    9.584819   -0.005553    ( 0.0000,  0.0000,  0.0000)
  12 I      0.014833    9.584987    3.202107    ( 0.0000,  0.0000,  0.0000)
  13 I      3.229521    6.358035    3.105622    ( 0.0000,  0.0000,  0.0000)
  14 Cs    -0.015992    6.454955    6.388309    ( 0.0000,  0.0000,  0.0000)
  15 Pb     3.207312    9.585010    9.595429    ( 0.0000,  0.0000,  0.0000)
  16 I      3.223686    9.585181    6.398408    ( 0.0000,  0.0000,  0.0000)
  17 I      0.017760    9.585002    9.580851    ( 0.0000,  0.0000,  0.0000)
  18 I      3.213603    6.352728    9.683721    ( 0.0000,  0.0000,  0.0000)
  19 Cs     6.598754   -0.262926    0.001018    ( 0.0000,  0.0000,  0.0000)
  20 Pb     9.595708    3.195004    3.181463    ( 0.0000,  0.0000,  0.0000)
  21 I      9.148683    3.195029   -0.011786    ( 0.0000,  0.0000,  0.0000)
  22 I      6.391884    3.194988    3.546280    ( 0.0000,  0.0000,  0.0000)
  23 I      9.591260   -0.001081    3.158492    ( 0.0000,  0.0000,  0.0000)
  24 Cs     6.418346   -0.020881    6.375337    ( 0.0000,  0.0000,  0.0000)
  25 Pb     9.603656    3.195004    9.587112    ( 0.0000,  0.0000,  0.0000)
  26 I     10.028672    3.194991    6.381839    ( 0.0000,  0.0000,  0.0000)
  27 I      6.378612    3.195000    9.165156    ( 0.0000,  0.0000,  0.0000)
  28 I      9.585142    0.005823    9.589420    ( 0.0000,  0.0000,  0.0000)
  29 Cs     6.598792    6.652953    0.001019    ( 0.0000,  0.0000,  0.0000)
  30 Pb     9.605450    9.585004    3.205790    ( 0.0000,  0.0000,  0.0000)
  31 I      9.608910    9.584984   -0.005635    ( 0.0000,  0.0000,  0.0000)
  32 I      6.412164    9.585010    3.153846    ( 0.0000,  0.0000,  0.0000)
  33 I      9.591229    6.391089    3.158522    ( 0.0000,  0.0000,  0.0000)
  34 Cs     6.418335    6.410894    6.375346    ( 0.0000,  0.0000,  0.0000)
  35 Pb     9.597609    9.585004    9.558844    ( 0.0000,  0.0000,  0.0000)
  36 I      9.587423    9.585018    6.380692    ( 0.0000,  0.0000,  0.0000)
  37 I      6.397380    9.584995    9.630490    ( 0.0000,  0.0000,  0.0000)
  38 I      9.585141    6.384184    9.589393    ( 0.0000,  0.0000,  0.0000)

Unit cell:
           periodic     x           y           z      points  spacing
  1. axis:    yes   12.780000    0.000000    0.000000    75     0.1704
  2. axis:    yes    0.000000   12.780000    0.000000    75     0.1704
  3. axis:    yes    0.000000    0.000000   12.780000    75     0.1704

  Lengths:  12.780000  12.780000  12.780000
  Angles:   90.000000  90.000000  90.000000

Effective grid spacing dv^(1/3) = 0.1704

     iter     time        total  log10-change:
                         energy   eigst   dens
iter:   1 12:18:37  -113.582279
iter:   2 12:19:39  -113.058378   -1.41  -1.30
iter:   3 12:20:39  -110.889877   -2.02  -1.34
iter:   4 12:21:38  -110.536705   -1.99  -1.53
iter:   5 12:22:37  -110.478427   -3.01  -1.73
iter:   6 12:23:35  -110.453374c  -3.66  -2.08
iter:   7 12:24:36  -110.381344c  -3.70  -2.26
iter:   8 12:25:34  -110.385965c  -4.72  -2.47
iter:   9 12:26:33  -110.382221c  -4.81  -2.64
iter:  10 12:27:31  -110.391469c  -4.73  -2.77
iter:  11 12:28:31  -110.388314c  -5.83  -3.18
iter:  12 12:29:32  -110.388250c  -6.20  -3.26
iter:  13 12:30:31  -110.389453c  -5.84  -3.33
iter:  14 12:31:30  -110.389062c  -6.79  -3.56
iter:  15 12:32:28  -110.388539c  -6.18  -3.61
iter:  16 12:33:27  -110.388737c  -7.10  -3.88
iter:  17 12:34:28  -110.388751c  -7.73c -3.95
iter:  18 12:35:33  -110.388663c  -7.48c -4.00c

Converged after 18 iterations.

Dipole moment: (29.872901, 56.736148, 5.059785) |e|*Ang

Energy contributions relative to reference atoms: (reference = -10684034.619125)

Kinetic:       +194.243978
Potential:     -201.840146
External:        +0.000000
XC:            -101.854314
Entropy (-ST):   -0.217824
Local:           -0.829269
SIC:             +0.000000
--------------------------
Free energy:   -110.497575
Extrapolated:  -110.388663

Showing only first 2 kpts
 Kpt  Band  Eigenvalues  Occupancy
  0   170      1.05530    2.00000
  0   171      1.17246    2.00000
  0   172      3.69910    0.83705
  0   173      4.00587    0.06480

  1   170      1.05219    2.00000
  1   171      1.17243    2.00000
  1   172      3.69829    0.84098
  1   173      4.00637    0.06449


Fermi level: 3.66621

Gap: 2.526 eV
Transition (v -> c):
  (s=0, k=0, n=171, [0.25, -0.25, -0.25]) -> (s=0, k=3, n=172, [0.25, 0.25, 0.25])
Direct/indirect transitions are different
Direct gap: 2.526 eV
Transition at: (s=0, k=1, n=171, [0.25, -0.25, 0.25])
