
  ___ ___ ___ _ _ _  
 |   |   |_  | | | | 
 | | | | | . | | | | 
 |__ |  _|___|_____|  25.7.0
 |___|_|             

User:   buyer@DESKTOP-3EQA59H
Date:   Mon Jul 20 12:55:15 2026
Arch:   x86_64
Pid:    39790
CWD:    /mnt/c/Users/Buyer/dft-si
Python: 3.11.15
gpaw:   /home/buyer/miniconda3/envs/dft/lib/python3.11/site-packages/gpaw
_gpaw:  /home/buyer/miniconda3/envs/dft/lib/python3.11/site-packages/
        _gpaw.cpython-311-x86_64-linux-gnu.so
ase:    /home/buyer/miniconda3/envs/dft/lib/python3.11/site-packages/ase (version 3.29.0)
numpy:  /home/buyer/miniconda3/envs/dft/lib/python3.11/site-packages/numpy (version 2.4.6)
scipy:  /home/buyer/miniconda3/envs/dft/lib/python3.11/site-packages/scipy (version 1.17.1)
libxc:  7.0.0
units:  Angstrom and eV
cores: 1
OpenMP: True
OMP_NUM_THREADS: 1

Input parameters:
  kpts: [2 2 2]
  mode: {ecut: 600.0,
         name: pw}
  xc: PBE

System changes: positions, numbers, cell, pbc, initial_charges, initial_magmoms 

Initialize ...

species:
  Cs:
    name: Caesium
    id: fa822afd343f47335d508b9ee4f394c3
    Z: 55.0
    valence: 9
    core: 46
    charge: 0.0
    file: /home/buyer/miniconda3/envs/dft/lib/python3.11/site-packages/gpaw_data/setups/Cs.PBE.gz
    compensation charges: {type: gauss,
                           rc: 0.33,
                           lmax: 2}
    cutoffs: {filter: 2.06,
              core: 2.51}
    projectors:
      #              energy  rcut
      - 5s(2.00)   -26.706   1.164
      - 6s(1.00)    -2.085   1.164
      - 5p(6.00)   -13.523   1.058
      -  p          13.688   1.058
      -  d           0.000   1.058
  
    # Using partial waves for Cs as LCAO basis

  Pb:
    name: Lead
    id: 66e73b13d76dc837202bcdb13fee58e6
    Z: 82.0
    valence: 14
    core: 68
    charge: 0.0
    file: /home/buyer/miniconda3/envs/dft/lib/python3.11/site-packages/gpaw_data/setups/Pb.PBE.gz
    compensation charges: {type: gauss,
                           rc: 0.38,
                           lmax: 2}
    cutoffs: {filter: 2.36,
              core: 2.43}
    projectors:
      #              energy  rcut
      - 6s(2.00)   -11.969   1.259
      - 6p(2.00)    -3.506   1.275
      - 5d(10.00)   -21.211   1.217
      -  s          15.243   1.259
      -  p          23.705   1.275
      -  d           6.001   1.217
  
    # Using partial waves for Pb as LCAO basis

  I:
    name: Iodine
    id: 91405a398e4dfe788ff04f57531604ec
    Z: 53.0
    valence: 7
    core: 46
    charge: 0.0
    file: /home/buyer/miniconda3/envs/dft/lib/python3.11/site-packages/gpaw_data/setups/I.PBE.gz
    compensation charges: {type: gauss,
                           rc: 0.37,
                           lmax: 2}
    cutoffs: {filter: 2.06,
              core: 2.90}
    projectors:
      #              energy  rcut
      - 5s(2.00)   -17.382   1.164
      - 5p(5.00)    -7.088   1.164
      -  s           9.829   1.164
      -  p          20.123   1.164
      -  d           0.000   1.164
  
    # Using partial waves for I as LCAO basis

Reference energy: -10684034.619125  # eV

Spin-paired calculation

Convergence criteria:
 Maximum [total energy] change in last 3 cyles: 0.0005 eV / valence electron
 Maximum integral of absolute [dens]ity change: 0.0001 electrons / valence electron
 Maximum integral of absolute [eigenst]ate change: 4e-08 eV^2 / valence electron
 Maximum number of scf [iter]ations: 333
 (Square brackets indicate name in SCF output, whereas a 'c' in
 the SCF output indicates the quantity has converged.)

Symmetries present (total): 1

  ( 1  0  0)
  ( 0  1  0)
  ( 0  0  1)

8 k-points: 2 x 2 x 2 Monkhorst-Pack grid
4 k-points in the irreducible part of the Brillouin zone
       k-points in crystal coordinates                weights
   0:     0.25000000   -0.25000000   -0.25000000          2/8
   1:     0.25000000   -0.25000000    0.25000000          2/8
   2:     0.25000000    0.25000000   -0.25000000          2/8
   3:     0.25000000    0.25000000    0.25000000          2/8

Wave functions: Plane wave expansion
  Cutoff energy: 600.000 eV
  Number of coefficients (min, max): 69650, 69650
  Pulay-stress correction: 0.000000 eV/Ang^3 (de/decut=0.000000)
  Using FFTW library
  ScaLapack parameters: grid=1x1, blocksize=None
  Wavefunction extrapolation:
    Improved wavefunction reuse through dual PAW basis 

Occupation numbers: Fermi-Dirac:
  width: 0.1000  # eV
 

Eigensolver
   Davidson(niter=2) 

Densities:
  Coarse grid: 75*75*75 grid
  Fine grid: 150*150*150 grid
  Total Charge: 0.000000 

Density mixing:
  Method: separate
  Backend: pulay
  Linear mixing parameter: 0.05
  old densities: 5
  Damping of long wavelength oscillations: 50 

Hamiltonian:
  XC and Coulomb potentials evaluated on a 150*150*150 grid
  Using the PBE Exchange-Correlation functional
  External potential:
    NoExternalPotential
 

XC parameters: PBE with 2 nearest neighbor stencil

Memory estimate:
  Process memory now: 7564.43 MiB
  Calculator: 1460.82 MiB
    Density: 227.10 MiB
      Arrays: 83.68 MiB
      Localized functions: 111.23 MiB
      Mixer: 32.19 MiB
    Hamiltonian: 57.72 MiB
      Arrays: 54.72 MiB
      XC: 0.00 MiB
      Poisson: 0.00 MiB
      vbar: 3.01 MiB
    Wavefunctions: 1175.99 MiB
      Arrays psit_nG: 867.22 MiB
      Eigensolver: 228.48 MiB
      Projections: 6.81 MiB
      Projectors: 53.14 MiB
      PW-descriptor: 20.34 MiB

Total number of cores used: 1

Number of atoms: 39
Number of atomic orbitals: 204
Number of bands in calculation: 204
Number of valence electrons: 345
Bands to converge: occupied

... initialized

Initializing position-dependent things.

Density initialized from atomic densities
Creating initial wave functions:
  204 bands from LCAO basis set

         .------------------------------Cs 
        /|                              |  
       / |                    I         |  
      /  |                              |  
     /   |                      I   Cs  |  
    /    |                              |  
   /   I |     Pb      I I    Pb        |  
  /      |                              |  
 *       Cs  I              I           |  
 |       |                              |  
 |       | Pb  I          Pb  I   I     |  
 |       |        I                     |  
 |   Cs  I           Cs                 |  
 |       |                              |  
 |     I |I    Pb      I   I   Pb       |  
 |       |                              |  
 |       .---I---Cs------Cs--I----------.  
 |      /                              /   
 |     /   Pb  I   I       Pb         /    
 |    /                              /     
 |  I/   I           Cs  I          /      
 |  /                              /       
 | /                              /        
 |/                              /         
 *------------------------------*          

Atomic positions and initial magnetic moments

Positions:
   0 Cs    -0.094463   -0.237338   -0.123504    ( 0.0000,  0.0000,  0.0000)
   1 Pb     3.273190    3.195009    3.176900    ( 0.0000,  0.0000,  0.0000)
   2 I      0.383256    3.195038    1.850030    ( 0.0000,  0.0000,  0.0000)
   3 I      3.431724    0.035627    3.297017    ( 0.0000,  0.0000,  0.0000)
   4 Cs     0.024300   -0.193317    6.640928    ( 0.0000,  0.0000,  0.0000)
   5 Pb     3.126646    3.194988    9.352541    ( 0.0000,  0.0000,  0.0000)
   6 I      2.750239    3.194759    6.273207    ( 0.0000,  0.0000,  0.0000)
   7 I     -0.041462    3.195008    9.687221    ( 0.0000,  0.0000,  0.0000)
   8 I      3.124047    0.037922    9.750010    ( 0.0000,  0.0000,  0.0000)
   9 Cs    -0.094528    6.627361   -0.123565    ( 0.0000,  0.0000,  0.0000)
  10 Pb     3.300778    9.584997    3.265806    ( 0.0000,  0.0000,  0.0000)
  11 I      3.286951    9.584698    0.073840    ( 0.0000,  0.0000,  0.0000)
  12 I      0.113622    9.584987    3.225338    ( 0.0000,  0.0000,  0.0000)
  13 I      3.431644    6.354385    3.297614    ( 0.0000,  0.0000,  0.0000)
  14 Cs     0.024366    6.583337    6.640880    ( 0.0000,  0.0000,  0.0000)
  15 Pb     3.233245    9.585020    9.664453    ( 0.0000,  0.0000,  0.0000)
  16 I      3.196000    9.585312    6.470198    ( 0.0000,  0.0000,  0.0000)
  17 I      0.015673    9.585013    9.651296    ( 0.0000,  0.0000,  0.0000)
  18 I      3.124010    6.352108    9.749435    ( 0.0000,  0.0000,  0.0000)
  19 Cs     6.659777   -0.277862    0.089998    ( 0.0000,  0.0000,  0.0000)
  20 Pb     9.754063    3.195010    2.985315    ( 0.0000,  0.0000,  0.0000)
  21 I      8.998275    3.195039   -0.133677    ( 0.0000,  0.0000,  0.0000)
  22 I      6.557064    3.195008    3.365703    ( 0.0000,  0.0000,  0.0000)
  23 I      9.757305    0.007790    3.064610    ( 0.0000,  0.0000,  0.0000)
  24 Cs     6.457613    0.070001    6.309827    ( 0.0000,  0.0000,  0.0000)
  25 Pb     9.513857    3.195005    9.457762    ( 0.0000,  0.0000,  0.0000)
  26 I      9.909687    3.194984    6.237044    ( 0.0000,  0.0000,  0.0000)
  27 I      6.306132    3.194997    8.984471    ( 0.0000,  0.0000,  0.0000)
  28 I      9.571012   -0.001890    9.556966    ( 0.0000,  0.0000,  0.0000)
  29 Cs     6.659856    6.667904    0.090007    ( 0.0000,  0.0000,  0.0000)
  30 Pb     9.712475    9.585009    3.203928    ( 0.0000,  0.0000,  0.0000)
  31 I      9.640543    9.584988   -0.008025    ( 0.0000,  0.0000,  0.0000)
  32 I      6.512954    9.585000    3.200403    ( 0.0000,  0.0000,  0.0000)
  33 I      9.757264    6.382228    3.064654    ( 0.0000,  0.0000,  0.0000)
  34 Cs     6.457644    6.320011    6.309897    ( 0.0000,  0.0000,  0.0000)
  35 Pb     9.578712    9.585010    9.560212    ( 0.0000,  0.0000,  0.0000)
  36 I      9.683639    9.585031    6.377881    ( 0.0000,  0.0000,  0.0000)
  37 I      6.403870    9.584987    9.672681    ( 0.0000,  0.0000,  0.0000)
  38 I      9.571021    6.391905    9.556923    ( 0.0000,  0.0000,  0.0000)

Unit cell:
           periodic     x           y           z      points  spacing
  1. axis:    yes   12.780000    0.000000    0.000000    75     0.1704
  2. axis:    yes    0.000000   12.780000    0.000000    75     0.1704
  3. axis:    yes    0.000000    0.000000   12.780000    75     0.1704

  Lengths:  12.780000  12.780000  12.780000
  Angles:   90.000000  90.000000  90.000000

Effective grid spacing dv^(1/3) = 0.1704

     iter     time        total  log10-change:
                         energy   eigst   dens
iter:   1 12:57:28  -113.601411
iter:   2 12:58:40  -113.066099   -1.42  -1.30
iter:   3 13:00:01  -110.874299   -2.02  -1.34
iter:   4 13:01:05  -110.526566   -1.99  -1.53
iter:   5 13:02:08  -110.474257   -2.91  -1.73
iter:   6 13:03:17  -110.432959c  -3.59  -2.09
iter:   7 13:04:42  -110.370022c  -3.65  -2.30
iter:   8 13:06:09  -110.373039c  -4.67  -2.45
iter:   9 13:07:40  -110.371783c  -4.70  -2.63
iter:  10 13:09:04  -110.377246c  -4.98  -2.89
iter:  11 13:10:45  -110.375701c  -6.03  -3.18
iter:  12 13:11:53  -110.375725c  -6.06  -3.23
iter:  13 13:13:07  -110.376098c  -6.17  -3.33
iter:  14 13:14:13  -110.375983c  -7.15  -3.43
iter:  15 13:15:28  -110.375825c  -6.04  -3.45
iter:  16 13:16:40  -110.376182c  -7.15  -3.64
iter:  17 13:18:10  -110.376187c  -7.75c -3.66
iter:  18 13:19:41  -110.375987c  -6.74  -3.72
iter:  19 13:20:50  -110.376025c  -7.42c -4.12c

Converged after 19 iterations.

Dipole moment: (-14.412018, 65.321658, 15.597814) |e|*Ang

Energy contributions relative to reference atoms: (reference = -10684034.619125)

Kinetic:       +193.252895
Potential:     -200.895785
External:        +0.000000
XC:            -101.759627
Entropy (-ST):   -0.221601
Local:           -0.862708
SIC:             +0.000000
--------------------------
Free energy:   -110.486826
Extrapolated:  -110.376025

Showing only first 2 kpts
 Kpt  Band  Eigenvalues  Occupancy
  0   170      1.07548    2.00000
  0   171      1.18111    2.00000
  0   172      3.65862    0.89503
  0   173      3.97386    0.06694

  1   170      1.08933    2.00000
  1   171      1.17294    2.00000
  1   172      3.68641    0.76041
  1   173      3.96750    0.07117


Fermi level: 3.63754

Gap: 2.478 eV
Transition (v -> c):
  (s=0, k=0, n=171, [0.25, -0.25, -0.25]) -> (s=0, k=2, n=172, [0.25, 0.25, -0.25])
Direct/indirect transitions are different
Direct gap: 2.478 eV
Transition at: (s=0, k=0, n=171, [0.25, -0.25, -0.25])
