
  ___ ___ ___ _ _ _  
 |   |   |_  | | | | 
 | | | | | . | | | | 
 |__ |  _|___|_____|  25.7.0
 |___|_|             

User:   buyer@DESKTOP-3EQA59H
Date:   Mon Jul 20 13:20:50 2026
Arch:   x86_64
Pid:    39790
CWD:    /mnt/c/Users/Buyer/dft-si
Python: 3.11.15
gpaw:   /home/buyer/miniconda3/envs/dft/lib/python3.11/site-packages/gpaw
_gpaw:  /home/buyer/miniconda3/envs/dft/lib/python3.11/site-packages/
        _gpaw.cpython-311-x86_64-linux-gnu.so
ase:    /home/buyer/miniconda3/envs/dft/lib/python3.11/site-packages/ase (version 3.29.0)
numpy:  /home/buyer/miniconda3/envs/dft/lib/python3.11/site-packages/numpy (version 2.4.6)
scipy:  /home/buyer/miniconda3/envs/dft/lib/python3.11/site-packages/scipy (version 1.17.1)
libxc:  7.0.0
units:  Angstrom and eV
cores: 1
OpenMP: True
OMP_NUM_THREADS: 1

Input parameters:
  kpts: [2 2 2]
  mode: {ecut: 600.0,
         name: pw}
  xc: PBE

System changes: positions, numbers, cell, pbc, initial_charges, initial_magmoms 

Initialize ...

species:
  Cs:
    name: Caesium
    id: fa822afd343f47335d508b9ee4f394c3
    Z: 55.0
    valence: 9
    core: 46
    charge: 0.0
    file: /home/buyer/miniconda3/envs/dft/lib/python3.11/site-packages/gpaw_data/setups/Cs.PBE.gz
    compensation charges: {type: gauss,
                           rc: 0.33,
                           lmax: 2}
    cutoffs: {filter: 2.06,
              core: 2.51}
    projectors:
      #              energy  rcut
      - 5s(2.00)   -26.706   1.164
      - 6s(1.00)    -2.085   1.164
      - 5p(6.00)   -13.523   1.058
      -  p          13.688   1.058
      -  d           0.000   1.058
  
    # Using partial waves for Cs as LCAO basis

  Pb:
    name: Lead
    id: 66e73b13d76dc837202bcdb13fee58e6
    Z: 82.0
    valence: 14
    core: 68
    charge: 0.0
    file: /home/buyer/miniconda3/envs/dft/lib/python3.11/site-packages/gpaw_data/setups/Pb.PBE.gz
    compensation charges: {type: gauss,
                           rc: 0.38,
                           lmax: 2}
    cutoffs: {filter: 2.36,
              core: 2.43}
    projectors:
      #              energy  rcut
      - 6s(2.00)   -11.969   1.259
      - 6p(2.00)    -3.506   1.275
      - 5d(10.00)   -21.211   1.217
      -  s          15.243   1.259
      -  p          23.705   1.275
      -  d           6.001   1.217
  
    # Using partial waves for Pb as LCAO basis

  I:
    name: Iodine
    id: 91405a398e4dfe788ff04f57531604ec
    Z: 53.0
    valence: 7
    core: 46
    charge: 0.0
    file: /home/buyer/miniconda3/envs/dft/lib/python3.11/site-packages/gpaw_data/setups/I.PBE.gz
    compensation charges: {type: gauss,
                           rc: 0.37,
                           lmax: 2}
    cutoffs: {filter: 2.06,
              core: 2.90}
    projectors:
      #              energy  rcut
      - 5s(2.00)   -17.382   1.164
      - 5p(5.00)    -7.088   1.164
      -  s           9.829   1.164
      -  p          20.123   1.164
      -  d           0.000   1.164
  
    # Using partial waves for I as LCAO basis

Reference energy: -10684034.619125  # eV

Spin-paired calculation

Convergence criteria:
 Maximum [total energy] change in last 3 cyles: 0.0005 eV / valence electron
 Maximum integral of absolute [dens]ity change: 0.0001 electrons / valence electron
 Maximum integral of absolute [eigenst]ate change: 4e-08 eV^2 / valence electron
 Maximum number of scf [iter]ations: 333
 (Square brackets indicate name in SCF output, whereas a 'c' in
 the SCF output indicates the quantity has converged.)

Symmetries present (total): 1

  ( 1  0  0)
  ( 0  1  0)
  ( 0  0  1)

8 k-points: 2 x 2 x 2 Monkhorst-Pack grid
4 k-points in the irreducible part of the Brillouin zone
       k-points in crystal coordinates                weights
   0:     0.25000000   -0.25000000   -0.25000000          2/8
   1:     0.25000000   -0.25000000    0.25000000          2/8
   2:     0.25000000    0.25000000   -0.25000000          2/8
   3:     0.25000000    0.25000000    0.25000000          2/8

Wave functions: Plane wave expansion
  Cutoff energy: 600.000 eV
  Number of coefficients (min, max): 69650, 69650
  Pulay-stress correction: 0.000000 eV/Ang^3 (de/decut=0.000000)
  Using FFTW library
  ScaLapack parameters: grid=1x1, blocksize=None
  Wavefunction extrapolation:
    Improved wavefunction reuse through dual PAW basis 

Occupation numbers: Fermi-Dirac:
  width: 0.1000  # eV
 

Eigensolver
   Davidson(niter=2) 

Densities:
  Coarse grid: 75*75*75 grid
  Fine grid: 150*150*150 grid
  Total Charge: 0.000000 

Density mixing:
  Method: separate
  Backend: pulay
  Linear mixing parameter: 0.05
  old densities: 5
  Damping of long wavelength oscillations: 50 

Hamiltonian:
  XC and Coulomb potentials evaluated on a 150*150*150 grid
  Using the PBE Exchange-Correlation functional
  External potential:
    NoExternalPotential
 

XC parameters: PBE with 2 nearest neighbor stencil

Memory estimate:
  Process memory now: 10082.72 MiB
  Calculator: 1460.82 MiB
    Density: 227.10 MiB
      Arrays: 83.68 MiB
      Localized functions: 111.23 MiB
      Mixer: 32.19 MiB
    Hamiltonian: 57.72 MiB
      Arrays: 54.72 MiB
      XC: 0.00 MiB
      Poisson: 0.00 MiB
      vbar: 3.01 MiB
    Wavefunctions: 1175.99 MiB
      Arrays psit_nG: 867.22 MiB
      Eigensolver: 228.48 MiB
      Projections: 6.81 MiB
      Projectors: 53.14 MiB
      PW-descriptor: 20.34 MiB

Total number of cores used: 1

Number of atoms: 39
Number of atomic orbitals: 204
Number of bands in calculation: 204
Number of valence electrons: 345
Bands to converge: occupied

... initialized

Initializing position-dependent things.

Density initialized from atomic densities
Creating initial wave functions:
  204 bands from LCAO basis set

         .------------------------------Cs 
        /|                              |  
       / |                    I         |  
      /  |                              |  
     /   |                      I   Cs  |  
    /    |                              |  
   /   I |     Pb      I I    Pb        |  
  /      |                              |  
 *       Cs I               I           |  
 |       |                              |  
 |       |Pb   I  I       Pb   I  I     |  
 |       |                              |  
 |   Cs  I           Cs                 |  
 |       |                              |  
 |     I |I    Pb      I  I    Pb       |  
 |       |                              |  
 |       .---I---Cs------Cs--I----------.  
 |      /                              /   
 |     /   Pb  I   I      Pb          /    
 |    /                              /     
 |   I   I           Cs  I          /      
 |  /                              /       
 | /                              /        
 |/                              /         
 *------------------------------*          

Atomic positions and initial magnetic moments

Positions:
   0 Cs    -0.117283   -0.276356   -0.131882    ( 0.0000,  0.0000,  0.0000)
   1 Pb     3.287271    3.195003    3.216747    ( 0.0000,  0.0000,  0.0000)
   2 I      0.658163    3.195050    1.492456    ( 0.0000,  0.0000,  0.0000)
   3 I      3.412048    0.029055    3.361171    ( 0.0000,  0.0000,  0.0000)
   4 Cs     0.042106   -0.217029    6.646714    ( 0.0000,  0.0000,  0.0000)
   5 Pb     3.090611    3.194992    9.456028    ( 0.0000,  0.0000,  0.0000)
   6 I      2.958601    3.194753    6.368705    ( 0.0000,  0.0000,  0.0000)
   7 I     -0.080261    3.194999    9.426108    ( 0.0000,  0.0000,  0.0000)
   8 I      3.098527    0.028423    9.763302    ( 0.0000,  0.0000,  0.0000)
   9 Cs    -0.117343    6.666382   -0.131937    ( 0.0000,  0.0000,  0.0000)
  10 Pb     3.294354    9.584991    3.280936    ( 0.0000,  0.0000,  0.0000)
  11 I      3.281975    9.584701    0.089009    ( 0.0000,  0.0000,  0.0000)
  12 I      0.103371    9.584991    3.235465    ( 0.0000,  0.0000,  0.0000)
  13 I      3.411954    6.360947    3.361749    ( 0.0000,  0.0000,  0.0000)
  14 Cs     0.042160    6.607059    6.646672    ( 0.0000,  0.0000,  0.0000)
  15 Pb     3.224195    9.585017    9.680739    ( 0.0000,  0.0000,  0.0000)
  16 I      3.181642    9.585302    6.487390    ( 0.0000,  0.0000,  0.0000)
  17 I      0.003038    9.585015    9.651650    ( 0.0000,  0.0000,  0.0000)
  18 I      3.098497    6.361606    9.762723    ( 0.0000,  0.0000,  0.0000)
  19 Cs     6.654465   -0.238797    0.072158    ( 0.0000,  0.0000,  0.0000)
  20 Pb     9.683624    3.195012    3.011957    ( 0.0000,  0.0000,  0.0000)
  21 I      9.192584    3.195046   -0.121519    ( 0.0000,  0.0000,  0.0000)
  22 I      6.532456    3.195018    3.161214    ( 0.0000,  0.0000,  0.0000)
  23 I      9.766781    0.012442    3.084361    ( 0.0000,  0.0000,  0.0000)
  24 Cs     6.420779    0.076284    6.361216    ( 0.0000,  0.0000,  0.0000)
  25 Pb     9.494770    3.195004    9.467685    ( 0.0000,  0.0000,  0.0000)
  26 I      9.581975    3.194976    6.236158    ( 0.0000,  0.0000,  0.0000)
  27 I      6.277450    3.195014    9.282252    ( 0.0000,  0.0000,  0.0000)
  28 I      9.563910   -0.006294    9.557817    ( 0.0000,  0.0000,  0.0000)
  29 Cs     6.654554    6.628829    0.072154    ( 0.0000,  0.0000,  0.0000)
  30 Pb     9.699386    9.585010    3.214656    ( 0.0000,  0.0000,  0.0000)
  31 I      9.627280    9.584987   -0.002934    ( 0.0000,  0.0000,  0.0000)
  32 I      6.505917    9.584996    3.213683    ( 0.0000,  0.0000,  0.0000)
  33 I      9.766744    6.377578    3.084409    ( 0.0000,  0.0000,  0.0000)
  34 Cs     6.420802    6.313718    6.361284    ( 0.0000,  0.0000,  0.0000)
  35 Pb     9.569578    9.585010    9.564768    ( 0.0000,  0.0000,  0.0000)
  36 I      9.693186    9.585033    6.389601    ( 0.0000,  0.0000,  0.0000)
  37 I      6.397904    9.584987    9.658756    ( 0.0000,  0.0000,  0.0000)
  38 I      9.563926    6.396309    9.557768    ( 0.0000,  0.0000,  0.0000)

Unit cell:
           periodic     x           y           z      points  spacing
  1. axis:    yes   12.780000    0.000000    0.000000    75     0.1704
  2. axis:    yes    0.000000   12.780000    0.000000    75     0.1704
  3. axis:    yes    0.000000    0.000000   12.780000    75     0.1704

  Lengths:  12.780000  12.780000  12.780000
  Angles:   90.000000  90.000000  90.000000

Effective grid spacing dv^(1/3) = 0.1704

     iter     time        total  log10-change:
                         energy   eigst   dens
iter:   1 13:23:20  -113.457547
iter:   2 13:24:29  -112.922319   -1.42  -1.30
iter:   3 13:25:34  -110.733762   -2.02  -1.34
iter:   4 13:26:40  -110.385816   -1.99  -1.53
iter:   5 13:27:47  -110.338276   -2.86  -1.73
iter:   6 13:28:55  -110.289618c  -3.61  -2.09
iter:   7 13:30:03  -110.229623c  -3.64  -2.29
iter:   8 13:31:08  -110.231997c  -4.57  -2.43
iter:   9 13:32:18  -110.232645c  -4.56  -2.64
iter:  10 13:33:19  -110.234866c  -5.16  -2.93
iter:  11 13:34:54  -110.234200c  -6.04  -3.15
iter:  12 13:36:16  -110.233672c  -6.36  -3.19
iter:  13 13:37:27  -110.234231c  -5.69  -3.25
iter:  14 13:38:20  -110.234207c  -6.52  -3.49
iter:  15 13:39:16  -110.234433c  -6.72  -3.52
iter:  16 13:40:19  -110.234467c  -6.44  -3.60
iter:  17 13:41:18  -110.234466c  -7.46c -3.70
iter:  18 13:42:29  -110.234642c  -6.43  -3.76
iter:  19 13:43:42  -110.234570c  -7.65c -4.36c

Converged after 19 iterations.

Dipole moment: (0.250742, 68.182033, 18.267988) |e|*Ang

Energy contributions relative to reference atoms: (reference = -10684034.619125)

Kinetic:       +196.647845
Potential:     -203.605413
External:        +0.000000
XC:            -102.237007
Entropy (-ST):   -0.220981
Local:           -0.929504
SIC:             +0.000000
--------------------------
Free energy:   -110.345061
Extrapolated:  -110.234570

Showing only first 2 kpts
 Kpt  Band  Eigenvalues  Occupancy
  0   170      1.09014    2.00000
  0   171      1.23162    2.00000
  0   172      3.65232    0.94127
  0   173      3.97605    0.06747

  1   170      1.09726    2.00000
  1   171      1.22424    2.00000
  1   172      3.70048    0.70906
  1   173      3.95746    0.08070


Fermi level: 3.64056

Gap: 2.421 eV
Transition (v -> c):
  (s=0, k=0, n=171, [0.25, -0.25, -0.25]) -> (s=0, k=2, n=172, [0.25, 0.25, -0.25])
Direct/indirect transitions are different
Direct gap: 2.421 eV
Transition at: (s=0, k=2, n=171, [0.25, 0.25, -0.25])
