
  ___ ___ ___ _ _ _  
 |   |   |_  | | | | 
 | | | | | . | | | | 
 |__ |  _|___|_____|  25.7.0
 |___|_|             

User:   buyer@DESKTOP-3EQA59H
Date:   Mon Jul 20 14:48:45 2026
Arch:   x86_64
Pid:    526
CWD:    /mnt/c/Users/Buyer/dft-si
Python: 3.11.15
gpaw:   /home/buyer/miniconda3/envs/dft/lib/python3.11/site-packages/gpaw
_gpaw:  /home/buyer/miniconda3/envs/dft/lib/python3.11/site-packages/
        _gpaw.cpython-311-x86_64-linux-gnu.so
ase:    /home/buyer/miniconda3/envs/dft/lib/python3.11/site-packages/ase (version 3.29.0)
numpy:  /home/buyer/miniconda3/envs/dft/lib/python3.11/site-packages/numpy (version 2.4.6)
scipy:  /home/buyer/miniconda3/envs/dft/lib/python3.11/site-packages/scipy (version 1.17.1)
libxc:  7.0.0
units:  Angstrom and eV
cores: 1
OpenMP: True
OMP_NUM_THREADS: 1

Input parameters:
  kpts: [2 2 2]
  mode: {ecut: 600.0,
         name: pw}
  xc: PBE

System changes: positions, numbers, cell, pbc, initial_charges, initial_magmoms 

Initialize ...

species:
  Cs:
    name: Caesium
    id: fa822afd343f47335d508b9ee4f394c3
    Z: 55.0
    valence: 9
    core: 46
    charge: 0.0
    file: /home/buyer/miniconda3/envs/dft/lib/python3.11/site-packages/gpaw_data/setups/Cs.PBE.gz
    compensation charges: {type: gauss,
                           rc: 0.33,
                           lmax: 2}
    cutoffs: {filter: 2.06,
              core: 2.51}
    projectors:
      #              energy  rcut
      - 5s(2.00)   -26.706   1.164
      - 6s(1.00)    -2.085   1.164
      - 5p(6.00)   -13.523   1.058
      -  p          13.688   1.058
      -  d           0.000   1.058
  
    # Using partial waves for Cs as LCAO basis

  Pb:
    name: Lead
    id: 66e73b13d76dc837202bcdb13fee58e6
    Z: 82.0
    valence: 14
    core: 68
    charge: 0.0
    file: /home/buyer/miniconda3/envs/dft/lib/python3.11/site-packages/gpaw_data/setups/Pb.PBE.gz
    compensation charges: {type: gauss,
                           rc: 0.38,
                           lmax: 2}
    cutoffs: {filter: 2.36,
              core: 2.43}
    projectors:
      #              energy  rcut
      - 6s(2.00)   -11.969   1.259
      - 6p(2.00)    -3.506   1.275
      - 5d(10.00)   -21.211   1.217
      -  s          15.243   1.259
      -  p          23.705   1.275
      -  d           6.001   1.217
  
    # Using partial waves for Pb as LCAO basis

  I:
    name: Iodine
    id: 91405a398e4dfe788ff04f57531604ec
    Z: 53.0
    valence: 7
    core: 46
    charge: 0.0
    file: /home/buyer/miniconda3/envs/dft/lib/python3.11/site-packages/gpaw_data/setups/I.PBE.gz
    compensation charges: {type: gauss,
                           rc: 0.37,
                           lmax: 2}
    cutoffs: {filter: 2.06,
              core: 2.90}
    projectors:
      #              energy  rcut
      - 5s(2.00)   -17.382   1.164
      - 5p(5.00)    -7.088   1.164
      -  s           9.829   1.164
      -  p          20.123   1.164
      -  d           0.000   1.164
  
    # Using partial waves for I as LCAO basis

Reference energy: -10684034.619125  # eV

Spin-paired calculation

Convergence criteria:
 Maximum [total energy] change in last 3 cyles: 0.0005 eV / valence electron
 Maximum integral of absolute [dens]ity change: 0.0001 electrons / valence electron
 Maximum integral of absolute [eigenst]ate change: 4e-08 eV^2 / valence electron
 Maximum number of scf [iter]ations: 333
 (Square brackets indicate name in SCF output, whereas a 'c' in
 the SCF output indicates the quantity has converged.)

Symmetries present (total): 1

  ( 1  0  0)
  ( 0  1  0)
  ( 0  0  1)

8 k-points: 2 x 2 x 2 Monkhorst-Pack grid
4 k-points in the irreducible part of the Brillouin zone
       k-points in crystal coordinates                weights
   0:     0.25000000   -0.25000000   -0.25000000          2/8
   1:     0.25000000   -0.25000000    0.25000000          2/8
   2:     0.25000000    0.25000000   -0.25000000          2/8
   3:     0.25000000    0.25000000    0.25000000          2/8

Wave functions: Plane wave expansion
  Cutoff energy: 600.000 eV
  Number of coefficients (min, max): 69650, 69650
  Pulay-stress correction: 0.000000 eV/Ang^3 (de/decut=0.000000)
  Using FFTW library
  ScaLapack parameters: grid=1x1, blocksize=None
  Wavefunction extrapolation:
    Improved wavefunction reuse through dual PAW basis 

Occupation numbers: Fermi-Dirac:
  width: 0.1000  # eV
 

Eigensolver
   Davidson(niter=2) 

Densities:
  Coarse grid: 75*75*75 grid
  Fine grid: 150*150*150 grid
  Total Charge: 0.000000 

Density mixing:
  Method: separate
  Backend: pulay
  Linear mixing parameter: 0.05
  old densities: 5
  Damping of long wavelength oscillations: 50 

Hamiltonian:
  XC and Coulomb potentials evaluated on a 150*150*150 grid
  Using the PBE Exchange-Correlation functional
  External potential:
    NoExternalPotential
 

XC parameters: PBE with 2 nearest neighbor stencil

Memory estimate:
  Process memory now: 395.19 MiB
  Calculator: 1460.82 MiB
    Density: 227.10 MiB
      Arrays: 83.68 MiB
      Localized functions: 111.23 MiB
      Mixer: 32.19 MiB
    Hamiltonian: 57.72 MiB
      Arrays: 54.72 MiB
      XC: 0.00 MiB
      Poisson: 0.00 MiB
      vbar: 3.01 MiB
    Wavefunctions: 1175.99 MiB
      Arrays psit_nG: 867.22 MiB
      Eigensolver: 228.48 MiB
      Projections: 6.81 MiB
      Projectors: 53.14 MiB
      PW-descriptor: 20.34 MiB

Total number of cores used: 1

Number of atoms: 39
Number of atomic orbitals: 204
Number of bands in calculation: 204
Number of valence electrons: 345
Bands to converge: occupied

... initialized

Initializing position-dependent things.

Density initialized from atomic densities
Creating initial wave functions:
  204 bands from LCAO basis set

         .------------------------------Cs 
        /|                              |  
       / |                              |  
      /  |                              |  
     /   |                      I   Cs  |  
    /    |                              |  
   /     |     Pb     I    I  Pb      I |  
  /      |                              |  
 *       Cs I               I           |  
 |       |        I                     |  
 |       |Pb   I          Pb   I        |  
 |   Cs  |                        I     |  
 |      I|          Cs                  |  
 |       |                              |  
 |     I | I   Pb      I I    Pb        |  
 |       |                              |  
 |       .---I--Cs-------Cs--I----------.  
 |      /                              /   
 |     /   Pb  I          Pb  I       /    
 |    /           I                  /     
 |   /   I           Cs  I          /      
 |  /  I                           /       
 | /                              /        
 |/                              /         
 *------------------------------*          

Atomic positions and initial magnetic moments

Positions:
   0 Cs    -0.131100   -0.239520   -0.088269    ( 0.0000,  0.0000,  0.0000)
   1 Pb     3.182963    3.194993    3.269019    ( 0.0000,  0.0000,  0.0000)
   2 I      1.827983    3.195092    0.409694    ( 0.0000,  0.0000,  0.0000)
   3 I      3.295997    0.035273    3.437321    ( 0.0000,  0.0000,  0.0000)
   4 Cs     0.089516   -0.295481    6.664538    ( 0.0000,  0.0000,  0.0000)
   5 Pb     2.986777    3.194998    9.734210    ( 0.0000,  0.0000,  0.0000)
   6 I      3.422843    3.194768    6.569541    ( 0.0000,  0.0000,  0.0000)
   7 I     -0.139640    3.194984    8.948166    ( 0.0000,  0.0000,  0.0000)
   8 I      3.057310    0.007950    9.756637    ( 0.0000,  0.0000,  0.0000)
   9 Cs    -0.131170    6.629570   -0.088323    ( 0.0000,  0.0000,  0.0000)
  10 Pb     3.264302    9.584980    3.301867    ( 0.0000,  0.0000,  0.0000)
  11 I      3.263008    9.584703    0.114604    ( 0.0000,  0.0000,  0.0000)
  12 I      0.072726    9.584989    3.249818    ( 0.0000,  0.0000,  0.0000)
  13 I      3.295939    6.354712    3.437863    ( 0.0000,  0.0000,  0.0000)
  14 Cs     0.089528    6.685536    6.664508    ( 0.0000,  0.0000,  0.0000)
  15 Pb     3.200757    9.585003    9.715155    ( 0.0000,  0.0000,  0.0000)
  16 I      3.155748    9.585276    6.514802    ( 0.0000,  0.0000,  0.0000)
  17 I     -0.011460    9.585015    9.680641    ( 0.0000,  0.0000,  0.0000)
  18 I      3.057295    6.382055    9.756089    ( 0.0000,  0.0000,  0.0000)
  19 Cs     6.632804   -0.180113    0.023308    ( 0.0000,  0.0000,  0.0000)
  20 Pb     9.342359    3.195010    3.129496    ( 0.0000,  0.0000,  0.0000)
  21 I      9.738806    3.195043   -0.038327    ( 0.0000,  0.0000,  0.0000)
  22 I      6.269774    3.195034    2.692844    ( 0.0000,  0.0000,  0.0000)
  23 I      9.750122    0.039364    3.135214    ( 0.0000,  0.0000,  0.0000)
  24 Cs     6.307489    0.050870    6.455643    ( 0.0000,  0.0000,  0.0000)
  25 Pb     9.452388    3.195003    9.512118    ( 0.0000,  0.0000,  0.0000)
  26 I      8.901161    3.194976    6.310306    ( 0.0000,  0.0000,  0.0000)
  27 I      6.233548    3.195039    9.993886    ( 0.0000,  0.0000,  0.0000)
  28 I      9.556487   -0.001180    9.570425    ( 0.0000,  0.0000,  0.0000)
  29 Cs     6.632906    6.570131    0.023284    ( 0.0000,  0.0000,  0.0000)
  30 Pb     9.662929    9.585010    3.236303    ( 0.0000,  0.0000,  0.0000)
  31 I      9.611321    9.584988    0.019050    ( 0.0000,  0.0000,  0.0000)
  32 I      6.469249    9.585006    3.246322    ( 0.0000,  0.0000,  0.0000)
  33 I      9.750079    6.350654    3.135260    ( 0.0000,  0.0000,  0.0000)
  34 Cs     6.307499    6.339097    6.455705    ( 0.0000,  0.0000,  0.0000)
  35 Pb     9.557240    9.585011    9.582325    ( 0.0000,  0.0000,  0.0000)
  36 I      9.718385    9.585036    6.408308    ( 0.0000,  0.0000,  0.0000)
  37 I      6.374241    9.584990    9.637603    ( 0.0000,  0.0000,  0.0000)
  38 I      9.556510    6.391194    9.570372    ( 0.0000,  0.0000,  0.0000)

Unit cell:
           periodic     x           y           z      points  spacing
  1. axis:    yes   12.780000    0.000000    0.000000    75     0.1704
  2. axis:    yes    0.000000   12.780000    0.000000    75     0.1704
  3. axis:    yes    0.000000    0.000000   12.780000    75     0.1704

  Lengths:  12.780000  12.780000  12.780000
  Angles:   90.000000  90.000000  90.000000

Effective grid spacing dv^(1/3) = 0.1704

     iter     time        total  log10-change:
                         energy   eigst   dens
iter:   1 14:51:24  -113.614132
iter:   2 14:52:27  -113.078114   -1.42  -1.30
iter:   3 14:53:30  -110.885585   -2.02  -1.34
iter:   4 14:54:35  -110.539811   -1.99  -1.53
iter:   5 14:55:39  -110.486428   -2.90  -1.73
iter:   6 14:56:42  -110.444401c  -3.58  -2.09
iter:   7 14:57:46  -110.382708c  -3.65  -2.30
iter:   8 14:58:53  -110.385582c  -4.68  -2.45
iter:   9 15:00:00  -110.384886c  -4.69  -2.63
iter:  10 15:01:30  -110.389890c  -5.02  -2.90
iter:  11 15:02:57  -110.388268c  -6.00  -3.17
iter:  12 15:04:14  -110.388393c  -6.18  -3.23
iter:  13 15:05:27  -110.388647c  -6.36  -3.30
iter:  14 15:06:41  -110.388529c  -7.14  -3.36
iter:  15 15:07:39  -110.389009c  -5.97  -3.39
iter:  16 15:08:40  -110.389008c  -7.03  -3.91
iter:  17 15:10:11  -110.388913c  -7.48c -4.00
iter:  18 15:11:29  -110.388778c  -7.41c -4.11c

Converged after 18 iterations.

Dipole moment: (18.585537, 67.459442, -16.533254) |e|*Ang

Energy contributions relative to reference atoms: (reference = -10684034.619125)

Kinetic:       +193.389512
Potential:     -201.022178
External:        +0.000000
XC:            -101.720633
Entropy (-ST):   -0.225192
Local:           -0.922884
SIC:             +0.000000
--------------------------
Free energy:   -110.501374
Extrapolated:  -110.388778

Showing only first 2 kpts
 Kpt  Band  Eigenvalues  Occupancy
  0   170      1.06849    2.00000
  0   171      1.17434    2.00000
  0   172      3.66533    0.87659
  0   173      3.97174    0.07031

  1   170      1.08347    2.00000
  1   171      1.17264    2.00000
  1   172      3.68937    0.76049
  1   173      3.96416    0.07564


Fermi level: 3.64052

Gap: 2.491 eV
Transition (v -> c):
  (s=0, k=0, n=171, [0.25, -0.25, -0.25]) -> (s=0, k=2, n=172, [0.25, 0.25, -0.25])
Direct/indirect transitions are different
Direct gap: 2.491 eV
Transition at: (s=0, k=2, n=171, [0.25, 0.25, -0.25])
Timing:                              incl.     excl.
-----------------------------------------------------------
Hamiltonian:                         2.939     0.011   0.0% |
 Atomic:                             0.943     0.002   0.0% |
  XC Correction:                     0.941     0.941   0.0% |
 Calculate atomic Hamiltonians:      1.239     1.239   0.0% |
 Communicate:                        0.000     0.000   0.0% |
 Initialize Hamiltonian:             0.001     0.001   0.0% |
 Poisson:                            0.020     0.020   0.0% |
 XC 3D grid:                         0.724     0.724   0.0% |
LCAO initialization:                73.985     0.085   0.0% |
 LCAO eigensolver:                   0.816     0.001   0.0% |
  Calculate projections:             0.005     0.005   0.0% |
  DenseAtomicCorrection:             0.022     0.022   0.0% |
  Distribute overlap matrix:         0.001     0.001   0.0% |
  Orbital Layouts:                   0.057     0.057   0.0% |
  Potential matrix:                  0.671     0.671   0.0% |
  Sum over cells:                    0.060     0.060   0.0% |
 LCAO to grid:                      72.604    72.604   1.4% ||
 Set positions (LCAO WFS):           0.481     0.065   0.0% |
  Basic WFS set positions:           0.000     0.000   0.0% |
  Basis functions set positions:     0.000     0.000   0.0% |
  P tci:                             0.338     0.338   0.0% |
  ST tci:                            0.071     0.071   0.0% |
  mktci:                             0.007     0.007   0.0% |
PWDescriptor:                        0.342     0.342   0.0% |
SCF-cycle:                        1279.141     0.052   0.0% |
 Davidson:                        1115.600   202.031   3.9% |-|
  Apply H:                         166.677   163.171   3.1% ||
   HMM T:                            3.506     3.506   0.1% |
  Subspace diag:                   213.945     0.011   0.0% |
   calc_h_matrix:                  190.028    19.830   0.4% |
    Apply H:                       170.197   166.259   3.2% ||
     HMM T:                          3.938     3.938   0.1% |
   diagonalize:                      6.242     6.242   0.1% |
   rotate_psi:                      17.665    17.665   0.3% |
  calc. matrices:                  435.840    98.317   1.9% ||
   Apply H:                        337.523   330.346   6.4% |--|
    HMM T:                           7.177     7.177   0.1% |
  diagonalize:                      65.337    65.337   1.3% ||
  rotate_psi:                       31.768    31.768   0.6% |
 Density:                          110.146     0.000   0.0% |
  Atomic density matrices:           0.111     0.111   0.0% |
  Mix:                              25.424    25.424   0.5% |
  Multipole moments:                 0.006     0.006   0.0% |
  Pseudo density:                   84.606    84.605   1.6% ||
   Symmetrize density:               0.000     0.000   0.0% |
 Hamiltonian:                       47.572     0.167   0.0% |
  Atomic:                           16.022     0.040   0.0% |
   XC Correction:                   15.982    15.982   0.3% |
  Calculate atomic Hamiltonians:    19.976    19.976   0.4% |
  Communicate:                       0.000     0.000   0.0% |
  Poisson:                           0.213     0.213   0.0% |
  XC 3D grid:                       11.194    11.194   0.2% |
 Orthonormalize:                     5.771     0.001   0.0% |
  calc_s_matrix:                     0.821     0.821   0.0% |
  inverse-cholesky:                  0.205     0.205   0.0% |
  projections:                       4.109     4.109   0.1% |
  rotate_psi_s:                      0.634     0.634   0.0% |
Set symmetry:                        0.000     0.000   0.0% |
Other:                            3837.649  3837.649  73.9% |-----------------------------|
-----------------------------------------------------------
Total:                                      5194.056 100.0%

Memory usage: 10.38 GiB
Date: Mon Jul 20 16:15:20 2026
