
  ___ ___ ___ _ _ _  
 |   |   |_  | | | | 
 | | | | | . | | | | 
 |__ |  _|___|_____|  25.7.0
 |___|_|             

User:   buyer@DESKTOP-3EQA59H
Date:   Mon Jul 20 15:11:29 2026
Arch:   x86_64
Pid:    526
CWD:    /mnt/c/Users/Buyer/dft-si
Python: 3.11.15
gpaw:   /home/buyer/miniconda3/envs/dft/lib/python3.11/site-packages/gpaw
_gpaw:  /home/buyer/miniconda3/envs/dft/lib/python3.11/site-packages/
        _gpaw.cpython-311-x86_64-linux-gnu.so
ase:    /home/buyer/miniconda3/envs/dft/lib/python3.11/site-packages/ase (version 3.29.0)
numpy:  /home/buyer/miniconda3/envs/dft/lib/python3.11/site-packages/numpy (version 2.4.6)
scipy:  /home/buyer/miniconda3/envs/dft/lib/python3.11/site-packages/scipy (version 1.17.1)
libxc:  7.0.0
units:  Angstrom and eV
cores: 1
OpenMP: True
OMP_NUM_THREADS: 1

Input parameters:
  kpts: [2 2 2]
  mode: {ecut: 600.0,
         name: pw}
  xc: PBE

System changes: positions, numbers, cell, pbc, initial_charges, initial_magmoms 

Initialize ...

species:
  Cs:
    name: Caesium
    id: fa822afd343f47335d508b9ee4f394c3
    Z: 55.0
    valence: 9
    core: 46
    charge: 0.0
    file: /home/buyer/miniconda3/envs/dft/lib/python3.11/site-packages/gpaw_data/setups/Cs.PBE.gz
    compensation charges: {type: gauss,
                           rc: 0.33,
                           lmax: 2}
    cutoffs: {filter: 2.06,
              core: 2.51}
    projectors:
      #              energy  rcut
      - 5s(2.00)   -26.706   1.164
      - 6s(1.00)    -2.085   1.164
      - 5p(6.00)   -13.523   1.058
      -  p          13.688   1.058
      -  d           0.000   1.058
  
    # Using partial waves for Cs as LCAO basis

  Pb:
    name: Lead
    id: 66e73b13d76dc837202bcdb13fee58e6
    Z: 82.0
    valence: 14
    core: 68
    charge: 0.0
    file: /home/buyer/miniconda3/envs/dft/lib/python3.11/site-packages/gpaw_data/setups/Pb.PBE.gz
    compensation charges: {type: gauss,
                           rc: 0.38,
                           lmax: 2}
    cutoffs: {filter: 2.36,
              core: 2.43}
    projectors:
      #              energy  rcut
      - 6s(2.00)   -11.969   1.259
      - 6p(2.00)    -3.506   1.275
      - 5d(10.00)   -21.211   1.217
      -  s          15.243   1.259
      -  p          23.705   1.275
      -  d           6.001   1.217
  
    # Using partial waves for Pb as LCAO basis

  I:
    name: Iodine
    id: 91405a398e4dfe788ff04f57531604ec
    Z: 53.0
    valence: 7
    core: 46
    charge: 0.0
    file: /home/buyer/miniconda3/envs/dft/lib/python3.11/site-packages/gpaw_data/setups/I.PBE.gz
    compensation charges: {type: gauss,
                           rc: 0.37,
                           lmax: 2}
    cutoffs: {filter: 2.06,
              core: 2.90}
    projectors:
      #              energy  rcut
      - 5s(2.00)   -17.382   1.164
      - 5p(5.00)    -7.088   1.164
      -  s           9.829   1.164
      -  p          20.123   1.164
      -  d           0.000   1.164
  
    # Using partial waves for I as LCAO basis

Reference energy: -10684034.619125  # eV

Spin-paired calculation

Convergence criteria:
 Maximum [total energy] change in last 3 cyles: 0.0005 eV / valence electron
 Maximum integral of absolute [dens]ity change: 0.0001 electrons / valence electron
 Maximum integral of absolute [eigenst]ate change: 4e-08 eV^2 / valence electron
 Maximum number of scf [iter]ations: 333
 (Square brackets indicate name in SCF output, whereas a 'c' in
 the SCF output indicates the quantity has converged.)

Symmetries present (total): 1

  ( 1  0  0)
  ( 0  1  0)
  ( 0  0  1)

8 k-points: 2 x 2 x 2 Monkhorst-Pack grid
4 k-points in the irreducible part of the Brillouin zone
       k-points in crystal coordinates                weights
   0:     0.25000000   -0.25000000   -0.25000000          2/8
   1:     0.25000000   -0.25000000    0.25000000          2/8
   2:     0.25000000    0.25000000   -0.25000000          2/8
   3:     0.25000000    0.25000000    0.25000000          2/8

Wave functions: Plane wave expansion
  Cutoff energy: 600.000 eV
  Number of coefficients (min, max): 69650, 69650
  Pulay-stress correction: 0.000000 eV/Ang^3 (de/decut=0.000000)
  Using FFTW library
  ScaLapack parameters: grid=1x1, blocksize=None
  Wavefunction extrapolation:
    Improved wavefunction reuse through dual PAW basis 

Occupation numbers: Fermi-Dirac:
  width: 0.1000  # eV
 

Eigensolver
   Davidson(niter=2) 

Densities:
  Coarse grid: 75*75*75 grid
  Fine grid: 150*150*150 grid
  Total Charge: 0.000000 

Density mixing:
  Method: separate
  Backend: pulay
  Linear mixing parameter: 0.05
  old densities: 5
  Damping of long wavelength oscillations: 50 

Hamiltonian:
  XC and Coulomb potentials evaluated on a 150*150*150 grid
  Using the PBE Exchange-Correlation functional
  External potential:
    NoExternalPotential
 

XC parameters: PBE with 2 nearest neighbor stencil

Memory estimate:
  Process memory now: 3066.11 MiB
  Calculator: 1460.82 MiB
    Density: 227.10 MiB
      Arrays: 83.68 MiB
      Localized functions: 111.23 MiB
      Mixer: 32.19 MiB
    Hamiltonian: 57.72 MiB
      Arrays: 54.72 MiB
      XC: 0.00 MiB
      Poisson: 0.00 MiB
      vbar: 3.01 MiB
    Wavefunctions: 1175.99 MiB
      Arrays psit_nG: 867.22 MiB
      Eigensolver: 228.48 MiB
      Projections: 6.81 MiB
      Projectors: 53.14 MiB
      PW-descriptor: 20.34 MiB

Total number of cores used: 1

Number of atoms: 39
Number of atomic orbitals: 204
Number of bands in calculation: 204
Number of valence electrons: 345
Bands to converge: occupied

... initialized

Initializing position-dependent things.

Density initialized from atomic densities
Creating initial wave functions:
  204 bands from LCAO basis set

         .------------------------------Cs 
        /|                              |  
       / |                              |  
      /  |                              |  
     /   |                          Cs  |  
    /    |                              |  
   /     |     Pb     I       Pb      I |  
  /      |                              |  
 *       Cs I           Cs  I           |  
 |       |        I                     |  
 |       |Pb   I          Pb   I        |  
 |   Cs  |                        I     |  
 |      I|          Cs  I               |  
 |       |                              |  
 |     I |  I  Pb      II     Pb        |  
 |       |                              |  
 |       .---I-----------Cs-I-----------.  
 |      /                              /   
 |     /   Pb  I         Pb   I       /    
 |    /           I                  /     
 |   /   I           Cs  I          /      
 |  /                              /       
 | /    I                   I     /        
 |/                              /         
 *------------------------------*          

Atomic positions and initial magnetic moments

Positions:
   0 Cs    -0.091813   -0.189479   -0.053499    ( 0.0000,  0.0000,  0.0000)
   1 Pb     3.229076    3.195004    3.237766    ( 0.0000,  0.0000,  0.0000)
   2 I      2.107871    3.195186    0.180582    ( 0.0000,  0.0000,  0.0000)
   3 I      3.201768    0.035130    3.423456    ( 0.0000,  0.0000,  0.0000)
   4 Cs     0.079445   -0.346820    6.658645    ( 0.0000,  0.0000,  0.0000)
   5 Pb     3.040182    3.195002    9.734280    ( 0.0000,  0.0000,  0.0000)
   6 I      3.754636    3.194788    6.484987    ( 0.0000,  0.0000,  0.0000)
   7 I     -0.122969    3.194977    8.750877    ( 0.0000,  0.0000,  0.0000)
   8 I      3.053936    0.006559    9.712751    ( 0.0000,  0.0000,  0.0000)
   9 Cs    -0.091915    6.579549   -0.053575    ( 0.0000,  0.0000,  0.0000)
  10 Pb     3.222189    9.584982    3.293554    ( 0.0000,  0.0000,  0.0000)
  11 I      3.264195    9.584674    0.111634    ( 0.0000,  0.0000,  0.0000)
  12 I      0.031487    9.584962    3.240616    ( 0.0000,  0.0000,  0.0000)
  13 I      3.201832    6.354868    3.424084    ( 0.0000,  0.0000,  0.0000)
  14 Cs     0.079463    6.736873    6.658628    ( 0.0000,  0.0000,  0.0000)
  15 Pb     3.181582    9.585003    9.708802    ( 0.0000,  0.0000,  0.0000)
  16 I      3.114232    9.585300    6.503456    ( 0.0000,  0.0000,  0.0000)
  17 I     -0.026756    9.585016    9.700827    ( 0.0000,  0.0000,  0.0000)
  18 I      3.053939    6.383446    9.712169    ( 0.0000,  0.0000,  0.0000)
  19 Cs     6.557078   -0.188055    0.018942    ( 0.0000,  0.0000,  0.0000)
  20 Pb     9.265217    3.195007    3.166128    ( 0.0000,  0.0000,  0.0000)
  21 I     10.120845    3.195035    0.023665    ( 0.0000,  0.0000,  0.0000)
  22 I      6.240085    3.195014    2.434634    ( 0.0000,  0.0000,  0.0000)
  23 I      9.700194    0.051253    3.194166    ( 0.0000,  0.0000,  0.0000)
  24 Cs     6.266280   -0.024585    6.470983    ( 0.0000,  0.0000,  0.0000)
  25 Pb     9.473957    3.195003    9.567965    ( 0.0000,  0.0000,  0.0000)
  26 I      8.612368    3.194973    6.355942    ( 0.0000,  0.0000,  0.0000)
  27 I      6.265187    3.195040   10.402753    ( 0.0000,  0.0000,  0.0000)
  28 I      9.549890    0.008519    9.590350    ( 0.0000,  0.0000,  0.0000)
  29 Cs     6.557107    6.578020    0.018925    ( 0.0000,  0.0000,  0.0000)
  30 Pb     9.624645    9.585008    3.249831    ( 0.0000,  0.0000,  0.0000)
  31 I      9.579478    9.584980    0.041567    ( 0.0000,  0.0000,  0.0000)
  32 I      6.430060    9.585042    3.292356    ( 0.0000,  0.0000,  0.0000)
  33 I      9.700108    6.338761    3.194213    ( 0.0000,  0.0000,  0.0000)
  34 Cs     6.266242    6.414497    6.471026    ( 0.0000,  0.0000,  0.0000)
  35 Pb     9.546478    9.585008    9.606037    ( 0.0000,  0.0000,  0.0000)
  36 I      9.729995    9.585043    6.423088    ( 0.0000,  0.0000,  0.0000)
  37 I      6.361578    9.584991    9.600149    ( 0.0000,  0.0000,  0.0000)
  38 I      9.549916    6.381491    9.590290    ( 0.0000,  0.0000,  0.0000)

Unit cell:
           periodic     x           y           z      points  spacing
  1. axis:    yes   12.780000    0.000000    0.000000    75     0.1704
  2. axis:    yes    0.000000   12.780000    0.000000    75     0.1704
  3. axis:    yes    0.000000    0.000000   12.780000    75     0.1704

  Lengths:  12.780000  12.780000  12.780000
  Angles:   90.000000  90.000000  90.000000

Effective grid spacing dv^(1/3) = 0.1704

     iter     time        total  log10-change:
                         energy   eigst   dens
iter:   1 15:13:48  -113.731473
iter:   2 15:14:50  -113.184223   -1.42  -1.30
iter:   3 15:15:49  -110.963012   -2.01  -1.34
iter:   4 15:16:48  -110.623812   -1.98  -1.53
iter:   5 15:17:46  -110.579982   -2.78  -1.73
iter:   6 15:18:46  -110.513431c  -3.57  -2.08
iter:   7 15:19:47  -110.461536c  -3.59  -2.30
iter:   8 15:20:45  -110.461431c  -4.69  -2.44
iter:   9 15:21:44  -110.465933c  -4.46  -2.64
iter:  10 15:22:42  -110.466243c  -5.30  -2.95
iter:  11 15:23:41  -110.465774c  -6.21  -3.15
iter:  12 15:24:41  -110.465427c  -5.73  -3.19
iter:  13 15:25:38  -110.465523c  -6.10  -3.37
iter:  14 15:26:38  -110.465640c  -6.64  -3.47
iter:  15 15:27:35  -110.465752c  -6.74  -3.53
iter:  16 15:28:34  -110.465752c  -6.50  -3.59
iter:  17 15:29:40  -110.465767c  -7.74c -4.11c

Converged after 17 iterations.

Dipole moment: (16.102562, 74.619997, -27.338237) |e|*Ang

Energy contributions relative to reference atoms: (reference = -10684034.619125)

Kinetic:       +190.317320
Potential:     -198.697449
External:        +0.000000
XC:            -101.084109
Entropy (-ST):   -0.242307
Local:           -0.880376
SIC:             +0.000000
--------------------------
Free energy:   -110.586921
Extrapolated:  -110.465767

Showing only first 2 kpts
 Kpt  Band  Eigenvalues  Occupancy
  0   170      1.03292    2.00000
  0   171      1.14888    2.00000
  0   172      3.68837    0.79369
  0   173      3.95526    0.08725

  1   170      1.04772    2.00000
  1   171      1.14750    2.00000
  1   172      3.69695    0.75301
  1   173      3.94548    0.09579


Fermi level: 3.64651

Gap: 2.539 eV
Transition (v -> c):
  (s=0, k=2, n=171, [0.25, 0.25, -0.25]) -> (s=0, k=2, n=172, [0.25, 0.25, -0.25])
No difference between direct/indirect transitions
Timing:                              incl.     excl.
-----------------------------------------------------------
Hamiltonian:                         3.780     0.013   0.0% |
 Atomic:                             0.938     0.002   0.0% |
  XC Correction:                     0.936     0.936   0.0% |
 Calculate atomic Hamiltonians:      1.981     1.981   0.1% |
 Communicate:                        0.000     0.000   0.0% |
 Initialize Hamiltonian:             0.001     0.001   0.0% |
 Poisson:                            0.025     0.025   0.0% |
 XC 3D grid:                         0.822     0.822   0.0% |
LCAO initialization:                70.524     0.085   0.0% |
 LCAO eigensolver:                   0.823     0.000   0.0% |
  Calculate projections:             0.009     0.009   0.0% |
  DenseAtomicCorrection:             0.016     0.016   0.0% |
  Distribute overlap matrix:         0.001     0.001   0.0% |
  Orbital Layouts:                   0.064     0.064   0.0% |
  Potential matrix:                  0.673     0.673   0.0% |
  Sum over cells:                    0.059     0.059   0.0% |
 LCAO to grid:                      68.624    68.624   1.8% ||
 Set positions (LCAO WFS):           0.992     0.482   0.0% |
  Basic WFS set positions:           0.001     0.001   0.0% |
  Basis functions set positions:     0.000     0.000   0.0% |
  P tci:                             0.397     0.397   0.0% |
  ST tci:                            0.105     0.105   0.0% |
  mktci:                             0.008     0.008   0.0% |
PWDescriptor:                        0.073     0.073   0.0% |
SCF-cycle:                        1011.801     0.049   0.0% |
 Davidson:                         877.086   146.830   3.8% |-|
  Apply H:                         144.963   141.958   3.7% ||
   HMM T:                            3.006     3.006   0.1% |
  Subspace diag:                   180.838     0.010   0.0% |
   calc_h_matrix:                  162.675    16.128   0.4% |
    Apply H:                       146.547   143.404   3.7% ||
     HMM T:                          3.142     3.142   0.1% |
   diagonalize:                      3.538     3.538   0.1% |
   rotate_psi:                      14.615    14.615   0.4% |
  calc. matrices:                  359.114    68.803   1.8% ||
   Apply H:                        290.311   284.292   7.4% |--|
    HMM T:                           6.019     6.019   0.2% |
  diagonalize:                      18.898    18.898   0.5% |
  rotate_psi:                       26.443    26.443   0.7% |
 Density:                           90.956     0.000   0.0% |
  Atomic density matrices:           0.102     0.102   0.0% |
  Mix:                              19.498    19.498   0.5% |
  Multipole moments:                 0.006     0.006   0.0% |
  Pseudo density:                   71.348    71.348   1.9% ||
   Symmetrize density:               0.000     0.000   0.0% |
 Hamiltonian:                       40.994     0.137   0.0% |
  Atomic:                           14.780     0.037   0.0% |
   XC Correction:                   14.744    14.744   0.4% |
  Calculate atomic Hamiltonians:    15.895    15.895   0.4% |
  Communicate:                       0.000     0.000   0.0% |
  Poisson:                           0.177     0.177   0.0% |
  XC 3D grid:                       10.005    10.005   0.3% |
 Orthonormalize:                     2.716     0.001   0.0% |
  calc_s_matrix:                     0.276     0.276   0.0% |
  inverse-cholesky:                  0.042     0.042   0.0% |
  projections:                       1.824     1.824   0.0% |
  rotate_psi_s:                      0.573     0.573   0.0% |
Set symmetry:                        0.001     0.001   0.0% |
Other:                            2744.206  2744.206  71.6% |----------------------------|
-----------------------------------------------------------
Total:                                      3830.385 100.0%

Memory usage: 10.38 GiB
Date: Mon Jul 20 16:15:19 2026
