39
Lattice="11.978464890500272 1.8907460835138808e-18 7.773986210509772e-19 6.591717431076887e-17 11.978464890498639 -1.270193805788661e-12 1.0065053216310442e-16 -3.5517173790862604e-13 11.978464890500462" Properties=species:S:1:pos:R:3:spacegroup_kinds:I:1:forces:R:3:energies:R:1 spacegroup="P m -3 m" unit_cell=conventional energy=-125.31714922896569 stress="-0.000704357015869057 4.634277700070463e-18 1.204901506670414e-18 4.634277700070463e-18 0.0007173050913869088 2.9741436163227406e-06 1.204901506670414e-18 2.9741436163227406e-06 -0.0007099462530753273" free_energy=-125.31714922896569 pbc="T T T"
Cs      -0.10637793      -0.01879396      -0.08742873        0       0.00398192       0.00034578       0.00305618      -3.76184563
Pb       2.99461622       2.88315601       2.99075785        1      -0.00000000      -0.00879017       0.00038362      -4.51313526
Br       0.03262118       3.06447405       2.98949445        2       0.00473538       0.00586094       0.00433844      -2.49731967
Br       2.99461622      -0.00527059       2.99630988        2       0.00000000       0.01357098      -0.00278283      -2.55038573
Cs      -0.07812373       0.01099761       6.07729430        0       0.00144895      -0.00059515      -0.00249588      -3.75550920
Pb       2.99461622       3.00484171       8.98693425        1       0.00000000       0.00058201       0.00618618      -4.78167676
Br       2.99461622       3.05614238       5.95727474        2       0.00000000       0.00601829      -0.00316627      -2.50236602
Br      -0.00143767       3.03012537       8.99188656        2      -0.00463923       0.00284481      -0.00458126      -2.51097652
Br       2.99461622       0.00146714       9.00141656        2      -0.00000000      -0.00171985      -0.00217305      -2.49921851
Cs      -0.17240704       5.99994935      -0.16907765        0       0.00563382      -0.00165203       0.00713271      -3.75027463
Pb       2.99461622       9.09089394       2.99358345        1       0.00000000      -0.00204999       0.00178652      -4.51789707
Br       2.99461622       8.91050526       0.03287624        2      -0.00000000      -0.00709153       0.00010303      -2.49634664
Br       0.03232280       8.92302288       2.98304447        2       0.00171074      -0.00597697       0.00141738      -2.49669016
Br       2.99461622       3.07685830       0.03359735        2      -0.00000000       0.00711114       0.00377978      -2.49323041
Cs      -0.16392041       5.97534945       6.17210879        0       0.00183933       0.00116558      -0.00585686      -3.74301507
Pb       2.99461622       8.97612264       8.98598210        1       0.00000000      -0.00129001      -0.00073422      -4.78096441
Br       2.99461622       8.92699924       5.95645243        2       0.00000000      -0.00634125       0.00324922      -2.49836777
Br      -0.00238268       8.95230371       8.99696067        2       0.00149664      -0.00282470      -0.00217912      -2.51126029
Br       2.99461622       5.99020189       8.98687208        2      -0.00000000       0.00215212      -0.00693138      -2.47587150
Cs       6.09561038      -0.01879396      -0.08742873        0      -0.00398192       0.00034578       0.00305618      -3.76184563
Pb       8.98384867       3.00624018       2.99270591        1       0.00000000       0.00061512       0.00048675      -4.78245486
Br       8.98384867       3.02821586      -0.00040797        2       0.00000000       0.00295827      -0.00634541      -2.50744853
Br       5.95661127       3.06447405       2.98949445        2      -0.00473538       0.00586094       0.00433844      -2.49731967
Br       8.98384867       0.00134960       2.97959444        2      -0.00000000       0.00071093       0.00206704      -2.49980617
Cs       6.06735618       0.01099761       6.07729430        0      -0.00144895      -0.00059515      -0.00249588      -3.75550920
Pb       8.98384867       2.98940273       8.98738712        1      -0.00000000       0.00095142       0.00025040      -4.75150559
Br       8.98384867       3.03077481       5.99128607        2      -0.00000000       0.00160964       0.00640232      -2.51364167
Br       5.99067012       3.03012537       8.99188656        2       0.00463923       0.00284481      -0.00458126      -2.51097652
Br       8.98384867       0.00040395       8.99828012        2      -0.00000000       0.00491202      -0.00325078      -2.53099553
Cs       6.16163948       5.99994935      -0.16907765        0      -0.00563382      -0.00165203       0.00713271      -3.75027463
Pb       8.98384867       8.97485398       2.99531412        1      -0.00000000      -0.00014901       0.00014610      -4.78235737
Br       8.98384867       8.95647358      -0.00135664        2       0.00000000      -0.00253215      -0.00402359      -2.51115427
Br       5.95690965       8.92302288       2.98304447        2      -0.00171074      -0.00597697       0.00141738      -2.49669016
Br       8.98384867       5.99091768       2.98288259        2      -0.00000000      -0.00087319       0.00103513      -2.47374254
Cs       6.15315286       5.97534945       6.17210879        0      -0.00183933       0.00116558      -0.00585686      -3.74301507
Pb       8.98384867       8.99135017       8.98311355        1      -0.00000000      -0.00160711       0.00074354      -4.75200692
Br       8.98384867       8.95085228       5.99107134        2      -0.00000000      -0.00226559       0.00359817      -2.51004992
Br       5.99161513       8.95230371       8.99696067        2      -0.00149664      -0.00282470      -0.00217912      -2.51126029
Br       8.98384867       5.99125586       8.99225556        2      -0.00000000      -0.00481862      -0.00247340      -2.53874347
