
  ___ ___ ___ _ _ _  
 |   |   |_  | | | | 
 | | | | | . | | | | 
 |__ |  _|___|_____|  25.7.0
 |___|_|             

User:   buyer@DESKTOP-3EQA59H
Date:   Sat Jul 18 23:51:50 2026
Arch:   x86_64
Pid:    34490
CWD:    /mnt/c/Users/Buyer/dft-si
Python: 3.11.15
gpaw:   /home/buyer/miniconda3/envs/dft/lib/python3.11/site-packages/gpaw
_gpaw:  /home/buyer/miniconda3/envs/dft/lib/python3.11/site-packages/
        _gpaw.cpython-311-x86_64-linux-gnu.so
ase:    /home/buyer/miniconda3/envs/dft/lib/python3.11/site-packages/ase (version 3.29.0)
numpy:  /home/buyer/miniconda3/envs/dft/lib/python3.11/site-packages/numpy (version 2.4.6)
scipy:  /home/buyer/miniconda3/envs/dft/lib/python3.11/site-packages/scipy (version 1.17.1)
libxc:  7.0.0
units:  Angstrom and eV
cores: 1
OpenMP: True
OMP_NUM_THREADS: 1

Input parameters:
  kpts: [2 2 2]
  mode: {ecut: 600.0,
         name: pw}
  xc: PBE

System changes: positions, numbers, cell, pbc, initial_charges, initial_magmoms 

Initialize ...

species:
  Cs:
    name: Caesium
    id: fa822afd343f47335d508b9ee4f394c3
    Z: 55.0
    valence: 9
    core: 46
    charge: 0.0
    file: /home/buyer/miniconda3/envs/dft/lib/python3.11/site-packages/gpaw_data/setups/Cs.PBE.gz
    compensation charges: {type: gauss,
                           rc: 0.33,
                           lmax: 2}
    cutoffs: {filter: 2.06,
              core: 2.51}
    projectors:
      #              energy  rcut
      - 5s(2.00)   -26.706   1.164
      - 6s(1.00)    -2.085   1.164
      - 5p(6.00)   -13.523   1.058
      -  p          13.688   1.058
      -  d           0.000   1.058
  
    # Using partial waves for Cs as LCAO basis

  Pb:
    name: Lead
    id: 66e73b13d76dc837202bcdb13fee58e6
    Z: 82.0
    valence: 14
    core: 68
    charge: 0.0
    file: /home/buyer/miniconda3/envs/dft/lib/python3.11/site-packages/gpaw_data/setups/Pb.PBE.gz
    compensation charges: {type: gauss,
                           rc: 0.38,
                           lmax: 2}
    cutoffs: {filter: 2.36,
              core: 2.43}
    projectors:
      #              energy  rcut
      - 6s(2.00)   -11.969   1.259
      - 6p(2.00)    -3.506   1.275
      - 5d(10.00)   -21.211   1.217
      -  s          15.243   1.259
      -  p          23.705   1.275
      -  d           6.001   1.217
  
    # Using partial waves for Pb as LCAO basis

  Br:
    name: Bromine
    id: 39dc90fcf3bf77f2d83386b416c2c495
    Z: 35.0
    valence: 7
    core: 28
    charge: 0.0
    file: /home/buyer/miniconda3/envs/dft/lib/python3.11/site-packages/gpaw_data/setups/Br.PBE.gz
    compensation charges: {type: gauss,
                           rc: 0.35,
                           lmax: 2}
    cutoffs: {filter: 1.98,
              core: 2.38}
    projectors:
      #              energy  rcut
      - 4s(2.00)   -20.121   1.111
      - 4p(5.00)    -7.861   1.111
      -  s           7.091   1.111
      -  p          19.351   1.111
      -  d           0.000   1.111
  
    # Using partial waves for Br as LCAO basis

Reference energy: -7863348.016572  # eV

Spin-paired calculation

Convergence criteria:
 Maximum [total energy] change in last 3 cyles: 0.0005 eV / valence electron
 Maximum integral of absolute [dens]ity change: 0.0001 electrons / valence electron
 Maximum integral of absolute [eigenst]ate change: 4e-08 eV^2 / valence electron
 Maximum number of scf [iter]ations: 333
 (Square brackets indicate name in SCF output, whereas a 'c' in
 the SCF output indicates the quantity has converged.)

Symmetries present (total): 1

  ( 1  0  0)
  ( 0  1  0)
  ( 0  0  1)

8 k-points: 2 x 2 x 2 Monkhorst-Pack grid
4 k-points in the irreducible part of the Brillouin zone
       k-points in crystal coordinates                weights
   0:     0.25000000   -0.25000000   -0.25000000          2/8
   1:     0.25000000   -0.25000000    0.25000000          2/8
   2:     0.25000000    0.25000000   -0.25000000          2/8
   3:     0.25000000    0.25000000    0.25000000          2/8

Wave functions: Plane wave expansion
  Cutoff energy: 600.000 eV
  Number of coefficients (min, max): 57382, 57382
  Pulay-stress correction: 0.000000 eV/Ang^3 (de/decut=0.000000)
  Using FFTW library
  ScaLapack parameters: grid=1x1, blocksize=None
  Wavefunction extrapolation:
    Improved wavefunction reuse through dual PAW basis 

Occupation numbers: Fermi-Dirac:
  width: 0.1000  # eV
 

Eigensolver
   Davidson(niter=2) 

Densities:
  Coarse grid: 70*70*70 grid
  Fine grid: 140*140*140 grid
  Total Charge: 0.000000 

Density mixing:
  Method: separate
  Backend: pulay
  Linear mixing parameter: 0.05
  old densities: 5
  Damping of long wavelength oscillations: 50 

Hamiltonian:
  XC and Coulomb potentials evaluated on a 140*140*140 grid
  Using the PBE Exchange-Correlation functional
  External potential:
    NoExternalPotential
 

XC parameters: PBE with 2 nearest neighbor stencil

Memory estimate:
  Process memory now: 2110.42 MiB
  Calculator: 1203.75 MiB
    Density: 185.79 MiB
      Arrays: 68.04 MiB
      Localized functions: 91.58 MiB
      Mixer: 26.17 MiB
    Hamiltonian: 46.96 MiB
      Arrays: 44.49 MiB
      XC: 0.00 MiB
      Poisson: 0.00 MiB
      vbar: 2.47 MiB
    Wavefunctions: 971.00 MiB
      Arrays psit_nG: 714.47 MiB
      Eigensolver: 189.35 MiB
      Projections: 6.81 MiB
      Projectors: 43.78 MiB
      PW-descriptor: 16.59 MiB

Total number of cores used: 1

Number of atoms: 39
Number of atomic orbitals: 204
Number of bands in calculation: 204
Number of valence electrons: 345
Bands to converge: occupied

... initialized

Initializing position-dependent things.

Density initialized from atomic densities
Creating initial wave functions:
  204 bands from LCAO basis set

                                             
                                             
                                             
                                             
             Br      Pb     Br      Pb       
                                             
                   Br             Br         
          Br     Pb      Br     Pb           
                     Br             Br       
           Cs   Br         Cs Br             
                                             
             Br  Br  Pb     Br  Br  Pb       
                                             
        Cs             Cs         Br         
                                             
          Br     Pb  Br Br      Pb  Br       
                  Br                         
           Cs  Br          Cs Br             
                                Br           
                                             
       Cs              Cs                    
                                             
                                             
                                             
                                             

Atomic positions and initial magnetic moments

Positions:
   0 Cs    -0.158956   -0.306689    0.049838    ( 0.0000,  0.0000,  0.0000)
   1 Pb     2.994616    2.865204    3.123970    ( 0.0000,  0.0000,  0.0000)
   2 Br     0.034424    2.763354    3.228868    ( 0.0000,  0.0000,  0.0000)
   3 Br     2.994616   -0.146948    2.768188    ( 0.0000,  0.0000,  0.0000)
   4 Cs    -0.037267   -0.004805    5.996195    ( 0.0000,  0.0000,  0.0000)
   5 Pb     2.994616    3.148479    9.027937    ( 0.0000,  0.0000,  0.0000)
   6 Br     2.994616    3.205598    6.137979    ( 0.0000,  0.0000,  0.0000)
   7 Br     0.011670    3.198454    9.095727    ( 0.0000,  0.0000,  0.0000)
   8 Br     2.994616    0.165890    8.801549    ( 0.0000,  0.0000,  0.0000)
   9 Cs    -0.283033    6.053285   -0.063116    ( 0.0000,  0.0000,  0.0000)
  10 Pb     2.994616    8.940996    2.840963    ( 0.0000,  0.0000,  0.0000)
  11 Br     2.994616    9.273272   -0.117551    ( 0.0000,  0.0000,  0.0000)
  12 Br     0.011550    8.870837    2.790521    ( 0.0000,  0.0000,  0.0000)
  13 Br     2.994616    4.923361    1.078174    ( 0.0000,  0.0000,  0.0000)
  14 Cs    -0.160334    5.938300    6.294926    ( 0.0000,  0.0000,  0.0000)
  15 Pb     2.994616    9.103503    8.863951    ( 0.0000,  0.0000,  0.0000)
  16 Br     2.994616    9.189913    5.823498    ( 0.0000,  0.0000,  0.0000)
  17 Br    -0.004650    8.986824    8.980866    ( 0.0000,  0.0000,  0.0000)
  18 Br     2.994616    6.106629    8.683603    ( 0.0000,  0.0000,  0.0000)
  19 Cs     6.148188   -0.306689    0.049838    ( 0.0000,  0.0000,  0.0000)
  20 Pb     8.983849    2.900754    3.089641    ( 0.0000,  0.0000,  0.0000)
  21 Br     8.983849    2.992019    0.101446    ( 0.0000,  0.0000,  0.0000)
  22 Br     5.954808    2.763354    3.228868    ( 0.0000,  0.0000,  0.0000)
  23 Br     8.983849   -0.101217    2.971784    ( 0.0000,  0.0000,  0.0000)
  24 Cs     6.026499   -0.004805    5.996195    ( 0.0000,  0.0000,  0.0000)
  25 Pb     8.983849    2.992354    9.091950    ( 0.0000,  0.0000,  0.0000)
  26 Br     8.983849    3.021859    6.091597    ( 0.0000,  0.0000,  0.0000)
  27 Br     5.977562    3.198454    9.095727    ( 0.0000,  0.0000,  0.0000)
  28 Br     8.983849    0.009909    9.084012    ( 0.0000,  0.0000,  0.0000)
  29 Cs     6.272265    6.053285   -0.063116    ( 0.0000,  0.0000,  0.0000)
  30 Pb     8.983849    8.876926    2.997845    ( 0.0000,  0.0000,  0.0000)
  31 Br     8.983849    8.931622   -0.011062    ( 0.0000,  0.0000,  0.0000)
  32 Br     5.977683    8.870837    2.790521    ( 0.0000,  0.0000,  0.0000)
  33 Br     8.983849    5.888979    2.999165    ( 0.0000,  0.0000,  0.0000)
  34 Cs     6.149567    5.938300    6.294926    ( 0.0000,  0.0000,  0.0000)
  35 Pb     8.983849    9.002082    8.966204    ( 0.0000,  0.0000,  0.0000)
  36 Br     8.983849    8.881496    5.980185    ( 0.0000,  0.0000,  0.0000)
  37 Br     5.993882    8.986824    8.980866    ( 0.0000,  0.0000,  0.0000)
  38 Br     8.983849    6.001140    9.039583    ( 0.0000,  0.0000,  0.0000)

Unit cell:
           periodic     x           y           z      points  spacing
  1. axis:    yes   11.978465    0.000000    0.000000    70     0.1711
  2. axis:    yes    0.000000   11.978465   -0.000000    70     0.1711
  3. axis:    yes    0.000000   -0.000000   11.978465    70     0.1711

  Lengths:  11.978465  11.978465  11.978465
  Angles:   90.000000  90.000000  90.000000

Effective grid spacing dv^(1/3) = 0.1711

     iter     time        total  log10-change:
                         energy   eigst   dens
iter:   1 23:53:59  -128.495692
iter:   2 23:54:37  -127.644725   -1.28  -1.25
iter:   3 23:55:21  -124.421782   -1.77  -1.30
iter:   4 23:56:04  -124.017184   -1.75  -1.51
iter:   5 23:56:50  -123.933107   -2.67  -1.69
iter:   6 23:57:33  -123.844530   -3.42  -2.05
iter:   7 23:58:14  -123.800566c  -3.36  -2.27
iter:   8 23:58:52  -123.796147c  -4.29  -2.38
iter:   9 23:59:30  -123.800619c  -4.39  -2.70
iter:  10 00:00:13  -123.802952c  -4.85  -2.69
iter:  11 00:00:52  -123.800660c  -5.21  -3.11
iter:  12 00:01:31  -123.801858c  -6.13  -3.19
iter:  13 00:02:08  -123.801917c  -6.93  -3.21
iter:  14 00:02:48  -123.801698c  -5.58  -3.23
iter:  15 00:03:26  -123.802254c  -6.43  -3.50
iter:  16 00:04:06  -123.802521c  -6.39  -3.55
iter:  17 00:04:44  -123.802332c  -7.42c -3.85
iter:  18 00:05:22  -123.802023c  -7.31  -3.93
iter:  19 00:06:00  -123.802010c  -7.42c -4.01c

Converged after 19 iterations.

Dipole moment: (71.020101, 67.240992, 3.163269) |e|*Ang

Energy contributions relative to reference atoms: (reference = -7863348.016572)

Kinetic:       +215.342327
Potential:     -221.978858
External:        +0.000000
XC:            -116.289868
Entropy (-ST):   -0.204746
Local:           -0.773238
SIC:             +0.000000
--------------------------
Free energy:   -123.904383
Extrapolated:  -123.802010

Showing only first 2 kpts
 Kpt  Band  Eigenvalues  Occupancy
  0   170      0.80787    2.00000
  0   171      1.01839    2.00000
  0   172      3.80617    1.04971
  0   173      4.16628    0.05853

  1   170      0.85514    2.00000
  1   171      0.99458    2.00000
  1   172      3.88666    0.66120
  1   173      4.14732    0.07032


Fermi level: 3.81612

No gap
No difference between direct/indirect transitions
Timing:                              incl.     excl.
-----------------------------------------------------------
Hamiltonian:                         2.430     0.007   0.0% |
 Atomic:                             0.890     0.003   0.0% |
  XC Correction:                     0.887     0.887   0.1% |
 Calculate atomic Hamiltonians:      0.967     0.967   0.1% |
 Communicate:                        0.000     0.000   0.0% |
 Initialize Hamiltonian:             0.001     0.001   0.0% |
 Poisson:                            0.012     0.012   0.0% |
 XC 3D grid:                         0.553     0.553   0.1% |
LCAO initialization:                66.788     0.133   0.0% |
 LCAO eigensolver:                   1.367     0.001   0.0% |
  Calculate projections:             0.063     0.063   0.0% |
  DenseAtomicCorrection:             0.129     0.129   0.0% |
  Distribute overlap matrix:         0.001     0.001   0.0% |
  Orbital Layouts:                   0.292     0.292   0.0% |
  Potential matrix:                  0.815     0.815   0.1% |
  Sum over cells:                    0.065     0.065   0.0% |
 LCAO to grid:                      64.386    64.386   7.6% |--|
 Set positions (LCAO WFS):           0.902     0.074   0.0% |
  Basic WFS set positions:           0.001     0.001   0.0% |
  Basis functions set positions:     0.000     0.000   0.0% |
  P tci:                             0.671     0.671   0.1% |
  ST tci:                            0.112     0.112   0.0% |
  mktci:                             0.044     0.044   0.0% |
PWDescriptor:                        0.054     0.054   0.0% |
SCF-cycle:                         764.626     0.056   0.0% |
 Davidson:                         647.832   128.570  15.1% |-----|
  Apply H:                          93.381    90.733  10.7% |---|
   HMM T:                            2.648     2.648   0.3% |
  Subspace diag:                   127.953     0.012   0.0% |
   calc_h_matrix:                  107.891    13.341   1.6% ||
    Apply H:                        94.549    91.718  10.8% |---|
     HMM T:                          2.831     2.831   0.3% |
   diagonalize:                      3.472     3.472   0.4% |
   rotate_psi:                      16.579    16.579   2.0% ||
  calc. matrices:                  245.326    58.993   6.9% |--|
   Apply H:                        186.333   181.050  21.3% |--------|
    HMM T:                           5.284     5.284   0.6% |
  diagonalize:                      28.876    28.876   3.4% ||
  rotate_psi:                       23.725    23.725   2.8% ||
 Density:                           61.731     0.000   0.0% |
  Atomic density matrices:           0.113     0.113   0.0% |
  Mix:                              17.987    17.987   2.1% ||
  Multipole moments:                 0.006     0.006   0.0% |
  Pseudo density:                   43.625    43.625   5.1% |-|
   Symmetrize density:               0.000     0.000   0.0% |
 Hamiltonian:                       47.934     0.114   0.0% |
  Atomic:                           15.336     0.042   0.0% |
   XC Correction:                   15.294    15.294   1.8% ||
  Calculate atomic Hamiltonians:    15.561    15.561   1.8% ||
  Communicate:                       0.000     0.000   0.0% |
  Poisson:                           0.169     0.169   0.0% |
  XC 3D grid:                       16.754    16.754   2.0% ||
 Orthonormalize:                     7.073     0.001   0.0% |
  calc_s_matrix:                     0.195     0.195   0.0% |
  inverse-cholesky:                  0.012     0.012   0.0% |
  projections:                       1.333     1.333   0.2% |
  rotate_psi_s:                      5.532     5.532   0.7% |
Set symmetry:                        0.000     0.000   0.0% |
Other:                              15.806    15.806   1.9% ||
-----------------------------------------------------------
Total:                                       849.703 100.0%

Memory usage: 4.09 GiB
Date: Sun Jul 19 00:06:00 2026
