39
Lattice="11.978464890500272 1.8907460835138808e-18 7.773986210509772e-19 6.591717431076887e-17 11.978464890498639 -1.270193805788661e-12 1.0065053216310442e-16 -3.5517173790862604e-13 11.978464890500462" Properties=species:S:1:pos:R:3:spacegroup_kinds:I:1:forces:R:3:energies:R:1 spacegroup="P m -3 m" unit_cell=conventional energy=-125.31710066998016 stress="-0.0007118219113574959 -4.550056117853686e-18 8.307262353379472e-19 -4.550056117853686e-18 -0.0007118219113899752 -2.5793116954982585e-15 8.307262353379472e-19 -2.5793116954982585e-15 0.0007168443710464288" free_energy=-125.31710066998016 pbc="T T T"
Cs      -0.16911359      -0.16911359       0.00000000        0       0.00176327       0.00176327       0.00000000      -3.74576403
Pb       2.99461622       2.99461622       3.10507623        1      -0.00000000      -0.00000000      -0.00187120      -4.51470568
Br       0.03265971       2.99461622       2.93268937        2       0.00034917      -0.00000000      -0.00658131      -2.49840816
Br       2.99461622       0.03265971       2.93268937        2       0.00000000       0.00034917      -0.00658131      -2.49840816
Cs      -0.08382805      -0.08382805       5.98923245        0      -0.00054438      -0.00054438      -0.00000000      -3.75991741
Pb       2.99461622       2.99461622       8.87338866        1       0.00000000       0.00000000       0.00187120      -4.51470568
Br       2.99461622       2.99461622       5.98923245        2       0.00000000      -0.00000000       0.00000000      -2.55093196
Br       0.03265971       2.99461622       9.04577552        2       0.00034917       0.00000000       0.00658131      -2.49840816
Br       2.99461622       0.03265971       9.04577552        2       0.00000000       0.00034917       0.00658131      -2.49840816
Cs      -0.16911359       6.15834603      -0.00000000        0       0.00176327      -0.00176327      -0.00000000      -3.74576403
Pb       2.99461622       8.98384867       2.98619463        1       0.00000000       0.00000000      -0.00376967      -4.78067373
Br       2.99461622       8.98384867      -0.00000000        2       0.00000000      -0.00000000      -0.00000000      -2.47618567
Br      -0.00498426       8.98384867       2.96239139        2       0.01928157       0.00000000      -0.00360169      -2.50953718
Br       2.99461622       5.95657273       2.93268937        2       0.00000000      -0.00034917      -0.00658131      -2.49840816
Cs      -0.08382805       6.07306050       5.98923245        0      -0.00054438       0.00054438      -0.00000000      -3.75991741
Pb       2.99461622       8.98384867       8.99227026        1       0.00000000      -0.00000000       0.00376967      -4.78067373
Br       2.99461622       8.98384867       5.98923245        2       0.00000000       0.00000000      -0.00000000      -2.50011544
Br      -0.00498426       8.98384867       9.01607350        2       0.01928157      -0.00000000       0.00360169      -2.50953718
Br       2.99461622       5.95657273       9.04577552        2       0.00000000      -0.00034917       0.00658131      -2.49840816
Cs       6.15834603      -0.16911359       0.00000000        0      -0.00176327       0.00176327       0.00000000      -3.74576403
Pb       8.98384867       2.99461622       2.98619463        1       0.00000000       0.00000000      -0.00376967      -4.78067373
Br       8.98384867       2.99461622      -0.00000000        2      -0.00000000      -0.00000000       0.00000000      -2.47618567
Br       5.95657273       2.99461622       2.93268937        2      -0.00034917      -0.00000000      -0.00658131      -2.49840816
Br       8.98384867      -0.00498426       2.96239139        2      -0.00000000       0.01928157      -0.00360169      -2.50953718
Cs       6.07306050      -0.08382805       5.98923245        0       0.00054438      -0.00054438       0.00000000      -3.75991741
Pb       8.98384867       2.99461622       8.99227026        1       0.00000000      -0.00000000       0.00376967      -4.78067373
Br       8.98384867       2.99461622       5.98923245        2      -0.00000000       0.00000000      -0.00000000      -2.50011544
Br       5.95657273       2.99461622       9.04577552        2      -0.00034917       0.00000000       0.00658131      -2.49840816
Br       8.98384867      -0.00498426       9.01607350        2      -0.00000000       0.01928157       0.00360169      -2.50953718
Cs       6.15834603       6.15834603      -0.00000000        0      -0.00176327      -0.00176327      -0.00000000      -3.74576403
Pb       8.98384867       8.98384867       3.00088735        1       0.00000000       0.00000000       0.00291196      -4.75619312
Br       8.98384867       8.98384867      -0.00000000        2       0.00000000      -0.00000000       0.00000000      -2.53626727
Br       5.99421671       8.98384867       2.96239139        2      -0.01928157       0.00000000      -0.00360169      -2.50953718
Br       8.98384867       5.99421671       2.96239139        2      -0.00000000      -0.01928157      -0.00360169      -2.50953718
Cs       6.07306050       6.07306050       5.98923245        0       0.00054438       0.00054438      -0.00000000      -3.75991741
Pb       8.98384867       8.98384867       8.97757754        1       0.00000000      -0.00000000      -0.00291196      -4.75619312
Br       8.98384867       8.98384867       5.98923245        2      -0.00000000      -0.00000000      -0.00000000      -2.52651826
Br       5.99421671       8.98384867       9.01607350        2      -0.01928157      -0.00000000       0.00360169      -2.50953718
Br       8.98384867       5.99421671       9.01607350        2      -0.00000000      -0.01928157       0.00360169      -2.50953718
