
  ___ ___ ___ _ _ _  
 |   |   |_  | | | | 
 | | | | | . | | | | 
 |__ |  _|___|_____|  25.7.0
 |___|_|             

User:   buyer@DESKTOP-3EQA59H
Date:   Thu Jul 16 23:26:57 2026
Arch:   x86_64
Pid:    28253
CWD:    /mnt/c/Users/Buyer/dft-si
Python: 3.11.15
gpaw:   /home/buyer/miniconda3/envs/dft/lib/python3.11/site-packages/gpaw
_gpaw:  /home/buyer/miniconda3/envs/dft/lib/python3.11/site-packages/
        _gpaw.cpython-311-x86_64-linux-gnu.so
ase:    /home/buyer/miniconda3/envs/dft/lib/python3.11/site-packages/ase (version 3.29.0)
numpy:  /home/buyer/miniconda3/envs/dft/lib/python3.11/site-packages/numpy (version 2.4.6)
scipy:  /home/buyer/miniconda3/envs/dft/lib/python3.11/site-packages/scipy (version 1.17.1)
libxc:  7.0.0
units:  Angstrom and eV
cores: 1
OpenMP: True
OMP_NUM_THREADS: 1

Input parameters:
  charge: 1
  kpts: [2 2 2]
  mode: {ecut: 600.0,
         name: pw}
  xc: PBE

System changes: positions, numbers, cell, pbc, initial_charges, initial_magmoms 

Initialize ...

species:
  Cs:
    name: Caesium
    id: fa822afd343f47335d508b9ee4f394c3
    Z: 55.0
    valence: 9
    core: 46
    charge: 0.0
    file: /home/buyer/miniconda3/envs/dft/lib/python3.11/site-packages/gpaw_data/setups/Cs.PBE.gz
    compensation charges: {type: gauss,
                           rc: 0.33,
                           lmax: 2}
    cutoffs: {filter: 2.06,
              core: 2.51}
    projectors:
      #              energy  rcut
      - 5s(2.00)   -26.706   1.164
      - 6s(1.00)    -2.085   1.164
      - 5p(6.00)   -13.523   1.058
      -  p          13.688   1.058
      -  d           0.000   1.058
  
    # Using partial waves for Cs as LCAO basis

  Pb:
    name: Lead
    id: 66e73b13d76dc837202bcdb13fee58e6
    Z: 82.0
    valence: 14
    core: 68
    charge: 0.0
    file: /home/buyer/miniconda3/envs/dft/lib/python3.11/site-packages/gpaw_data/setups/Pb.PBE.gz
    compensation charges: {type: gauss,
                           rc: 0.38,
                           lmax: 2}
    cutoffs: {filter: 2.36,
              core: 2.43}
    projectors:
      #              energy  rcut
      - 6s(2.00)   -11.969   1.259
      - 6p(2.00)    -3.506   1.275
      - 5d(10.00)   -21.211   1.217
      -  s          15.243   1.259
      -  p          23.705   1.275
      -  d           6.001   1.217
  
    # Using partial waves for Pb as LCAO basis

  I:
    name: Iodine
    id: 91405a398e4dfe788ff04f57531604ec
    Z: 53.0
    valence: 7
    core: 46
    charge: 0.0
    file: /home/buyer/miniconda3/envs/dft/lib/python3.11/site-packages/gpaw_data/setups/I.PBE.gz
    compensation charges: {type: gauss,
                           rc: 0.37,
                           lmax: 2}
    cutoffs: {filter: 2.06,
              core: 2.90}
    projectors:
      #              energy  rcut
      - 5s(2.00)   -17.382   1.164
      - 5p(5.00)    -7.088   1.164
      -  s           9.829   1.164
      -  p          20.123   1.164
      -  d           0.000   1.164
  
    # Using partial waves for I as LCAO basis

Reference energy: -10684034.619125  # eV

Spin-paired calculation

Convergence criteria:
 Maximum [total energy] change in last 3 cyles: 0.0005 eV / valence electron
 Maximum integral of absolute [dens]ity change: 0.0001 electrons / valence electron
 Maximum integral of absolute [eigenst]ate change: 4e-08 eV^2 / valence electron
 Maximum number of scf [iter]ations: 333
 (Square brackets indicate name in SCF output, whereas a 'c' in
 the SCF output indicates the quantity has converged.)

Symmetries present (total): 4

  ( 1  0  0)  ( 1  0  0)  ( 0  1  0)  ( 0  1  0)
  ( 0  1  0)  ( 0  1  0)  ( 1  0  0)  ( 1  0  0)
  ( 0  0  1)  ( 0  0 -1)  ( 0  0  1)  ( 0  0 -1)

8 k-points: 2 x 2 x 2 Monkhorst-Pack grid
2 k-points in the irreducible part of the Brillouin zone
       k-points in crystal coordinates                weights
   0:     0.25000000   -0.25000000    0.25000000          4/8
   1:     0.25000000    0.25000000    0.25000000          4/8

Wave functions: Plane wave expansion
  Cutoff energy: 600.000 eV
  Number of coefficients (min, max): 69650, 69650
  Pulay-stress correction: 0.000000 eV/Ang^3 (de/decut=0.000000)
  Using FFTW library
  ScaLapack parameters: grid=1x1, blocksize=None
  Wavefunction extrapolation:
    Improved wavefunction reuse through dual PAW basis 

Occupation numbers: Fermi-Dirac:
  width: 0.1000  # eV
 

Eigensolver
   Davidson(niter=2) 

Densities:
  Coarse grid: 75*75*75 grid
  Fine grid: 150*150*150 grid
  Total Charge: 1.000000 

Density mixing:
  Method: separate
  Backend: pulay
  Linear mixing parameter: 0.05
  old densities: 5
  Damping of long wavelength oscillations: 50 

Hamiltonian:
  XC and Coulomb potentials evaluated on a 150*150*150 grid
  Using the PBE Exchange-Correlation functional
  External potential:
    NoExternalPotential
Poisson solver:
  Uniform background charge: 1.000 electrons
 

XC parameters: PBE with 2 nearest neighbor stencil

Memory estimate:
  Process memory now: 379.32 MiB
  Calculator: 995.11 MiB
    Density: 227.10 MiB
      Arrays: 83.68 MiB
      Localized functions: 111.23 MiB
      Mixer: 32.19 MiB
    Hamiltonian: 57.72 MiB
      Arrays: 54.72 MiB
      XC: 0.00 MiB
      Poisson: 0.00 MiB
      vbar: 3.01 MiB
    Wavefunctions: 710.28 MiB
      Arrays psit_nG: 433.61 MiB
      Eigensolver: 228.48 MiB
      Projections: 3.41 MiB
      Projectors: 26.57 MiB
      PW-descriptor: 18.22 MiB

Total number of cores used: 1

Number of atoms: 39
Number of atomic orbitals: 204
Number of bands in calculation: 204
Number of valence electrons: 344
Bands to converge: occupied

... initialized

Initializing position-dependent things.

Density initialized from atomic densities
Creating initial wave functions:
  204 bands from LCAO basis set

         .------------------------------.  
        /|                              |  
       / |                              |  
      /  |                              |  
     /   |                      I       |  
    /    |                              |  
   /     |     Pb      I      Pb      I |  
  /      |                              |  
 *       |   I           Cs I           Cs 
 |       |                              |  
 | I     | Pb  I  I       Pb  I         |  
 |       |                              |  
 |       I           Cs         I   Cs  |  
 |       |                              |  
 |       | I   Pb      I  I   Pb      I |  
 |       |                              |  
 |       .---I-----------Cs-I----------Cs  
 |      /                              /   
 | I   /   Pb  I  I       Pb  I       /    
 |    /                              /     
 |   /   I           Cs             /s     
 |  /                              /       
 | /                      I       /        
 |/                              /         
 *------------------------------*          

Atomic positions and initial magnetic moments

Positions:
   0 Cs    -0.191173   -0.191173   -0.000000    ( 0.0000,  0.0000,  0.0000)
   1 Pb     3.195002    3.195002    3.300171    ( 0.0000,  0.0000,  0.0000)
   2 I      0.031403    3.195013    3.106711    ( 0.0000,  0.0000,  0.0000)
   3 I      3.195013    0.031403    3.106711    ( 0.0000,  0.0000,  0.0000)
   4 Cs    -0.027476   -0.027476    6.390000    ( 0.0000,  0.0000,  0.0000)
   5 Pb     3.195002    3.195002    9.479829    ( 0.0000,  0.0000,  0.0000)
   6 I      3.195005    3.195005    6.390000    ( 0.0000,  0.0000,  0.0000)
   7 I      0.031403    3.195013    9.673289    ( 0.0000,  0.0000,  0.0000)
   8 I      3.195013    0.031403    9.673289    ( 0.0000,  0.0000,  0.0000)
   9 Cs    -0.191181    6.581192   -0.000000    ( 0.0000,  0.0000,  0.0000)
  10 Pb     3.195001    9.585002    3.187558    ( 0.0000,  0.0000,  0.0000)
  11 I      3.195010    9.584973   -0.000000    ( 0.0000,  0.0000,  0.0000)
  12 I     -0.000158    9.584990    3.192723    ( 0.0000,  0.0000,  0.0000)
  13 I      3.195012    6.358597    3.106753    ( 0.0000,  0.0000,  0.0000)
  14 Cs    -0.027472    6.417476    6.390000    ( 0.0000,  0.0000,  0.0000)
  15 Pb     3.195001    9.585002    9.592442    ( 0.0000,  0.0000,  0.0000)
  16 I      3.195009    9.585013    6.390000    ( 0.0000,  0.0000,  0.0000)
  17 I     -0.000158    9.584990    9.587277    ( 0.0000,  0.0000,  0.0000)
  18 I      3.195012    6.358597    9.673247    ( 0.0000,  0.0000,  0.0000)
  19 Cs     6.581192   -0.191181   -0.000000    ( 0.0000,  0.0000,  0.0000)
  20 Pb     9.585002    3.195001    3.187558    ( 0.0000,  0.0000,  0.0000)
  21 I      9.584973    3.195010   -0.000000    ( 0.0000,  0.0000,  0.0000)
  22 I      6.358597    3.195012    3.106753    ( 0.0000,  0.0000,  0.0000)
  23 I      9.584990   -0.000158    3.192723    ( 0.0000,  0.0000,  0.0000)
  24 Cs     6.417476   -0.027472    6.390000    ( 0.0000,  0.0000,  0.0000)
  25 Pb     9.585002    3.195001    9.592442    ( 0.0000,  0.0000,  0.0000)
  26 I      9.585013    3.195009    6.390000    ( 0.0000,  0.0000,  0.0000)
  27 I      6.358597    3.195012    9.673247    ( 0.0000,  0.0000,  0.0000)
  28 I      9.584990   -0.000158    9.587277    ( 0.0000,  0.0000,  0.0000)
  29 Cs     6.581200    6.581200   -0.000000    ( 0.0000,  0.0000,  0.0000)
  30 Pb     9.585000    9.585000    3.216749    ( 0.0000,  0.0000,  0.0000)
  31 I      9.584981    9.584981   -0.000000    ( 0.0000,  0.0000,  0.0000)
  32 I      6.390157    9.584991    3.192725    ( 0.0000,  0.0000,  0.0000)
  33 I      9.584991    6.390157    3.192725    ( 0.0000,  0.0000,  0.0000)
  34 Cs     6.417471    6.417471    6.390000    ( 0.0000,  0.0000,  0.0000)
  35 Pb     9.585000    9.585000    9.563251    ( 0.0000,  0.0000,  0.0000)
  36 I      9.584995    9.584995    6.390000    ( 0.0000,  0.0000,  0.0000)
  37 I      6.390157    9.584991    9.587275    ( 0.0000,  0.0000,  0.0000)
  38 I      9.584991    6.390157    9.587275    ( 0.0000,  0.0000,  0.0000)

Unit cell:
           periodic     x           y           z      points  spacing
  1. axis:    yes   12.780000    0.000000    0.000000    75     0.1704
  2. axis:    yes    0.000000   12.780000    0.000000    75     0.1704
  3. axis:    yes    0.000000    0.000000   12.780000    75     0.1704

  Lengths:  12.780000  12.780000  12.780000
  Angles:   90.000000  90.000000  90.000000

Effective grid spacing dv^(1/3) = 0.1704

     iter     time        total  log10-change:
                         energy   eigst   dens
iter:   1 23:28:09  -117.692063
iter:   2 23:28:37  -116.997956   -1.43  -1.27
iter:   3 23:29:10  -114.272133   -1.92  -1.32
iter:   4 23:29:42  -113.938538   -1.99  -1.53
iter:   5 23:30:18  -113.967143   -2.64  -1.71
iter:   6 23:30:49  -113.837172c  -3.49  -2.00
iter:   7 23:31:21  -113.770646   -3.29  -2.20
iter:   8 23:31:55  -113.771594c  -4.27  -2.34
iter:   9 23:32:39  -113.770909c  -4.72  -2.76
iter:  10 23:33:18  -113.769923c  -4.90  -2.76
iter:  11 23:33:54  -113.770020c  -5.55  -3.27
iter:  12 23:34:24  -113.769856c  -6.18  -3.32
iter:  13 23:35:01  -113.769984c  -6.76  -3.35
iter:  14 23:35:38  -113.769904c  -5.84  -3.31
iter:  15 23:36:21  -113.769753c  -6.69  -3.34
iter:  16 23:37:03  -113.769910c  -6.26  -3.32
iter:  17 23:37:39  -113.769896c  -7.44c -3.43
iter:  18 23:38:23  -113.769942c  -7.26  -3.43
iter:  19 23:38:56  -113.770053c  -6.09  -3.46
iter:  20 23:39:30  -113.770054c  -7.48c -3.70
iter:  21 23:40:07  -113.770038c  -7.40c -3.73
iter:  22 23:40:53  -113.770022c  -6.70  -3.77
iter:  23 23:41:24  -113.770019c  -7.88c -3.86
iter:  24 23:42:11  -113.770007c  -6.79  -3.91
iter:  25 23:42:48  -113.770005c  -8.32c -4.49c

Converged after 25 iterations.

Dipole moment: (51.269153, 51.269153, -0.000000) |e|*Ang

Energy contributions relative to reference atoms: (reference = -10684034.619125)

Kinetic:       +162.872648
Potential:     -182.263558
External:        +0.000000
XC:             -93.399378
Entropy (-ST):   -0.000248
Local:           -0.979593
SIC:             +0.000000
--------------------------
Free energy:   -113.770129
Extrapolated:  -113.770005

Showing all kpts
 Kpt  Band  Eigenvalues  Occupancy
  0   170      1.05359    1.99999
  0   171      1.14612    1.99997
  0   172      3.24970    0.00010
  0   173      3.96094    0.00000

  1   170      1.05359    1.99999
  1   171      1.14612    1.99997
  1   172      3.24970    0.00010
  1   173      3.96094    0.00000


Fermi level: 2.26201

Gap: 2.104 eV
Transition (v -> c):
  (s=0, k=1, n=171, [0.25, 0.25, 0.25]) -> (s=0, k=0, n=172, [0.25, -0.25, 0.25])
Direct/indirect transitions are different
Direct gap: 2.104 eV
Transition at: (s=0, k=1, n=171, [0.25, 0.25, 0.25])
Timing:                              incl.     excl.
-----------------------------------------------------------
Hamiltonian:                         2.712     0.008   0.0% |
 Atomic:                             0.931     0.005   0.0% |
  XC Correction:                     0.926     0.926   0.0% |
 Calculate atomic Hamiltonians:      0.986     0.986   0.0% |
 Communicate:                        0.000     0.000   0.0% |
 Initialize Hamiltonian:             0.001     0.001   0.0% |
 Poisson:                            0.010     0.010   0.0% |
 XC 3D grid:                         0.777     0.777   0.0% |
LCAO initialization:                37.985     0.086   0.0% |
 LCAO eigensolver:                   0.717     0.000   0.0% |
  Calculate projections:             0.003     0.003   0.0% |
  DenseAtomicCorrection:             0.007     0.007   0.0% |
  Distribute overlap matrix:         0.001     0.001   0.0% |
  Orbital Layouts:                   0.027     0.027   0.0% |
  Potential matrix:                  0.661     0.661   0.0% |
  Sum over cells:                    0.019     0.019   0.0% |
 LCAO to grid:                      36.878    36.878   0.7% |
 Set positions (LCAO WFS):           0.304     0.048   0.0% |
  Basic WFS set positions:           0.002     0.002   0.0% |
  Basis functions set positions:     0.000     0.000   0.0% |
  P tci:                             0.186     0.186   0.0% |
  ST tci:                            0.060     0.060   0.0% |
  mktci:                             0.007     0.007   0.0% |
PWDescriptor:                        0.198     0.198   0.0% |
SCF-cycle:                         904.174     0.058   0.0% |
 Davidson:                         748.834   155.194   3.1% ||
  Apply H:                         105.384   103.020   2.1% ||
   HMM T:                            2.365     2.365   0.0% |
  Subspace diag:                   132.963     0.007   0.0% |
   calc_h_matrix:                  114.719    12.522   0.2% |
    Apply H:                       102.197    99.733   2.0% ||
     HMM T:                          2.464     2.464   0.0% |
   diagonalize:                      5.813     5.813   0.1% |
   rotate_psi:                      12.423    12.423   0.2% |
  calc. matrices:                  277.209    66.689   1.3% ||
   Apply H:                        210.520   205.772   4.1% |-|
    HMM T:                           4.747     4.747   0.1% |
  diagonalize:                      54.769    54.769   1.1% |
  rotate_psi:                       23.316    23.316   0.5% |
 Density:                           86.506     0.000   0.0% |
  Atomic density matrices:           0.100     0.100   0.0% |
  Mix:                              33.942    33.942   0.7% |
  Multipole moments:                 0.008     0.008   0.0% |
  Pseudo density:                   52.456    50.901   1.0% |
   Symmetrize density:               1.555     1.555   0.0% |
 Hamiltonian:                       67.361     0.226   0.0% |
  Atomic:                           22.492     0.052   0.0% |
   XC Correction:                   22.440    22.440   0.4% |
  Calculate atomic Hamiltonians:    28.585    28.585   0.6% |
  Communicate:                       0.000     0.000   0.0% |
  Poisson:                           0.301     0.301   0.0% |
  XC 3D grid:                       15.757    15.757   0.3% |
 Orthonormalize:                     1.415     0.000   0.0% |
  calc_s_matrix:                     0.180     0.180   0.0% |
  inverse-cholesky:                  0.004     0.004   0.0% |
  projections:                       0.880     0.880   0.0% |
  rotate_psi_s:                      0.351     0.351   0.0% |
Set symmetry:                        0.001     0.001   0.0% |
Other:                            4070.702  4070.702  81.2% |-------------------------------|
-----------------------------------------------------------
Total:                                      5015.773 100.0%

Memory usage: 9.82 GiB
Date: Fri Jul 17 00:50:33 2026
