
  ___ ___ ___ _ _ _  
 |   |   |_  | | | | 
 | | | | | . | | | | 
 |__ |  _|___|_____|  25.7.0
 |___|_|             

User:   buyer@DESKTOP-3EQA59H
Date:   Thu Jul 16 23:42:48 2026
Arch:   x86_64
Pid:    28253
CWD:    /mnt/c/Users/Buyer/dft-si
Python: 3.11.15
gpaw:   /home/buyer/miniconda3/envs/dft/lib/python3.11/site-packages/gpaw
_gpaw:  /home/buyer/miniconda3/envs/dft/lib/python3.11/site-packages/
        _gpaw.cpython-311-x86_64-linux-gnu.so
ase:    /home/buyer/miniconda3/envs/dft/lib/python3.11/site-packages/ase (version 3.29.0)
numpy:  /home/buyer/miniconda3/envs/dft/lib/python3.11/site-packages/numpy (version 2.4.6)
scipy:  /home/buyer/miniconda3/envs/dft/lib/python3.11/site-packages/scipy (version 1.17.1)
libxc:  7.0.0
units:  Angstrom and eV
cores: 1
OpenMP: True
OMP_NUM_THREADS: 1

Input parameters:
  charge: 1
  kpts: [2 2 2]
  mode: {ecut: 600.0,
         name: pw}
  xc: PBE

System changes: positions, numbers, cell, pbc, initial_charges, initial_magmoms 

Initialize ...

species:
  Cs:
    name: Caesium
    id: fa822afd343f47335d508b9ee4f394c3
    Z: 55.0
    valence: 9
    core: 46
    charge: 0.0
    file: /home/buyer/miniconda3/envs/dft/lib/python3.11/site-packages/gpaw_data/setups/Cs.PBE.gz
    compensation charges: {type: gauss,
                           rc: 0.33,
                           lmax: 2}
    cutoffs: {filter: 2.06,
              core: 2.51}
    projectors:
      #              energy  rcut
      - 5s(2.00)   -26.706   1.164
      - 6s(1.00)    -2.085   1.164
      - 5p(6.00)   -13.523   1.058
      -  p          13.688   1.058
      -  d           0.000   1.058
  
    # Using partial waves for Cs as LCAO basis

  Pb:
    name: Lead
    id: 66e73b13d76dc837202bcdb13fee58e6
    Z: 82.0
    valence: 14
    core: 68
    charge: 0.0
    file: /home/buyer/miniconda3/envs/dft/lib/python3.11/site-packages/gpaw_data/setups/Pb.PBE.gz
    compensation charges: {type: gauss,
                           rc: 0.38,
                           lmax: 2}
    cutoffs: {filter: 2.36,
              core: 2.43}
    projectors:
      #              energy  rcut
      - 6s(2.00)   -11.969   1.259
      - 6p(2.00)    -3.506   1.275
      - 5d(10.00)   -21.211   1.217
      -  s          15.243   1.259
      -  p          23.705   1.275
      -  d           6.001   1.217
  
    # Using partial waves for Pb as LCAO basis

  I:
    name: Iodine
    id: 91405a398e4dfe788ff04f57531604ec
    Z: 53.0
    valence: 7
    core: 46
    charge: 0.0
    file: /home/buyer/miniconda3/envs/dft/lib/python3.11/site-packages/gpaw_data/setups/I.PBE.gz
    compensation charges: {type: gauss,
                           rc: 0.37,
                           lmax: 2}
    cutoffs: {filter: 2.06,
              core: 2.90}
    projectors:
      #              energy  rcut
      - 5s(2.00)   -17.382   1.164
      - 5p(5.00)    -7.088   1.164
      -  s           9.829   1.164
      -  p          20.123   1.164
      -  d           0.000   1.164
  
    # Using partial waves for I as LCAO basis

Reference energy: -10684034.619125  # eV

Spin-paired calculation

Convergence criteria:
 Maximum [total energy] change in last 3 cyles: 0.0005 eV / valence electron
 Maximum integral of absolute [dens]ity change: 0.0001 electrons / valence electron
 Maximum integral of absolute [eigenst]ate change: 4e-08 eV^2 / valence electron
 Maximum number of scf [iter]ations: 333
 (Square brackets indicate name in SCF output, whereas a 'c' in
 the SCF output indicates the quantity has converged.)

Symmetries present (total): 1

  ( 1  0  0)
  ( 0  1  0)
  ( 0  0  1)

8 k-points: 2 x 2 x 2 Monkhorst-Pack grid
4 k-points in the irreducible part of the Brillouin zone
       k-points in crystal coordinates                weights
   0:     0.25000000   -0.25000000   -0.25000000          2/8
   1:     0.25000000   -0.25000000    0.25000000          2/8
   2:     0.25000000    0.25000000   -0.25000000          2/8
   3:     0.25000000    0.25000000    0.25000000          2/8

Wave functions: Plane wave expansion
  Cutoff energy: 600.000 eV
  Number of coefficients (min, max): 69650, 69650
  Pulay-stress correction: 0.000000 eV/Ang^3 (de/decut=0.000000)
  Using FFTW library
  ScaLapack parameters: grid=1x1, blocksize=None
  Wavefunction extrapolation:
    Improved wavefunction reuse through dual PAW basis 

Occupation numbers: Fermi-Dirac:
  width: 0.1000  # eV
 

Eigensolver
   Davidson(niter=2) 

Densities:
  Coarse grid: 75*75*75 grid
  Fine grid: 150*150*150 grid
  Total Charge: 1.000000 

Density mixing:
  Method: separate
  Backend: pulay
  Linear mixing parameter: 0.05
  old densities: 5
  Damping of long wavelength oscillations: 50 

Hamiltonian:
  XC and Coulomb potentials evaluated on a 150*150*150 grid
  Using the PBE Exchange-Correlation functional
  External potential:
    NoExternalPotential
Poisson solver:
  Uniform background charge: 1.000 electrons
 

XC parameters: PBE with 2 nearest neighbor stencil

Memory estimate:
  Process memory now: 2498.43 MiB
  Calculator: 1460.82 MiB
    Density: 227.10 MiB
      Arrays: 83.68 MiB
      Localized functions: 111.23 MiB
      Mixer: 32.19 MiB
    Hamiltonian: 57.72 MiB
      Arrays: 54.72 MiB
      XC: 0.00 MiB
      Poisson: 0.00 MiB
      vbar: 3.01 MiB
    Wavefunctions: 1175.99 MiB
      Arrays psit_nG: 867.22 MiB
      Eigensolver: 228.48 MiB
      Projections: 6.81 MiB
      Projectors: 53.14 MiB
      PW-descriptor: 20.34 MiB

Total number of cores used: 1

Number of atoms: 39
Number of atomic orbitals: 204
Number of bands in calculation: 204
Number of valence electrons: 344
Bands to converge: occupied

... initialized

Initializing position-dependent things.

Density initialized from atomic densities
Creating initial wave functions:
  204 bands from LCAO basis set

         .------------------------------Cs 
        /|                              |  
       / |                    I         |  
      /  |                              |  
     /   |                      I   Cs  |  
    /    |                              |  
   /   I |     Pb      I I    Pb        |  
  /      |                              |  
 *       Cs I               I           |  
 |       |                              |  
 |       |Pb   I  I       Pb   I  I     |  
 |       |                              |  
 |   Cs  I           Cs                 |  
 |       |                              |  
 |     I |I    Pb      I  I    Pb       |  
 |       |                              |  
 |       .---I---Cs------Cs--I----------.  
 |      /                              /   
 |     /   Pb  I   I      Pb          /    
 |    /                              /     
 |   I   I           Cs  I          /      
 |  /                              /       
 | /                              /        
 |/                              /         
 *------------------------------*          

Atomic positions and initial magnetic moments

Positions:
   0 Cs    -0.117283   -0.276356   -0.131882    ( 0.0000,  0.0000,  0.0000)
   1 Pb     3.287271    3.195003    3.216747    ( 0.0000,  0.0000,  0.0000)
   2 I      0.658163    3.195050    1.492456    ( 0.0000,  0.0000,  0.0000)
   3 I      3.412048    0.029055    3.361171    ( 0.0000,  0.0000,  0.0000)
   4 Cs     0.042106   -0.217029    6.646714    ( 0.0000,  0.0000,  0.0000)
   5 Pb     3.090611    3.194992    9.456028    ( 0.0000,  0.0000,  0.0000)
   6 I      2.958601    3.194753    6.368705    ( 0.0000,  0.0000,  0.0000)
   7 I     -0.080261    3.194999    9.426108    ( 0.0000,  0.0000,  0.0000)
   8 I      3.098527    0.028423    9.763302    ( 0.0000,  0.0000,  0.0000)
   9 Cs    -0.117343    6.666382   -0.131937    ( 0.0000,  0.0000,  0.0000)
  10 Pb     3.294354    9.584991    3.280936    ( 0.0000,  0.0000,  0.0000)
  11 I      3.281975    9.584701    0.089009    ( 0.0000,  0.0000,  0.0000)
  12 I      0.103371    9.584991    3.235465    ( 0.0000,  0.0000,  0.0000)
  13 I      3.411954    6.360947    3.361749    ( 0.0000,  0.0000,  0.0000)
  14 Cs     0.042160    6.607059    6.646672    ( 0.0000,  0.0000,  0.0000)
  15 Pb     3.224195    9.585017    9.680739    ( 0.0000,  0.0000,  0.0000)
  16 I      3.181642    9.585302    6.487390    ( 0.0000,  0.0000,  0.0000)
  17 I      0.003038    9.585015    9.651650    ( 0.0000,  0.0000,  0.0000)
  18 I      3.098497    6.361606    9.762723    ( 0.0000,  0.0000,  0.0000)
  19 Cs     6.654465   -0.238797    0.072158    ( 0.0000,  0.0000,  0.0000)
  20 Pb     9.683624    3.195012    3.011957    ( 0.0000,  0.0000,  0.0000)
  21 I      9.192584    3.195046   -0.121519    ( 0.0000,  0.0000,  0.0000)
  22 I      6.532456    3.195018    3.161214    ( 0.0000,  0.0000,  0.0000)
  23 I      9.766781    0.012442    3.084361    ( 0.0000,  0.0000,  0.0000)
  24 Cs     6.420779    0.076284    6.361216    ( 0.0000,  0.0000,  0.0000)
  25 Pb     9.494770    3.195004    9.467685    ( 0.0000,  0.0000,  0.0000)
  26 I      9.581975    3.194976    6.236158    ( 0.0000,  0.0000,  0.0000)
  27 I      6.277450    3.195014    9.282252    ( 0.0000,  0.0000,  0.0000)
  28 I      9.563910   -0.006294    9.557817    ( 0.0000,  0.0000,  0.0000)
  29 Cs     6.654554    6.628829    0.072154    ( 0.0000,  0.0000,  0.0000)
  30 Pb     9.699386    9.585010    3.214656    ( 0.0000,  0.0000,  0.0000)
  31 I      9.627280    9.584987   -0.002934    ( 0.0000,  0.0000,  0.0000)
  32 I      6.505917    9.584996    3.213683    ( 0.0000,  0.0000,  0.0000)
  33 I      9.766744    6.377578    3.084409    ( 0.0000,  0.0000,  0.0000)
  34 Cs     6.420802    6.313718    6.361284    ( 0.0000,  0.0000,  0.0000)
  35 Pb     9.569578    9.585010    9.564768    ( 0.0000,  0.0000,  0.0000)
  36 I      9.693186    9.585033    6.389601    ( 0.0000,  0.0000,  0.0000)
  37 I      6.397904    9.584987    9.658756    ( 0.0000,  0.0000,  0.0000)
  38 I      9.563926    6.396309    9.557768    ( 0.0000,  0.0000,  0.0000)

Unit cell:
           periodic     x           y           z      points  spacing
  1. axis:    yes   12.780000    0.000000    0.000000    75     0.1704
  2. axis:    yes    0.000000   12.780000    0.000000    75     0.1704
  3. axis:    yes    0.000000    0.000000   12.780000    75     0.1704

  Lengths:  12.780000  12.780000  12.780000
  Angles:   90.000000  90.000000  90.000000

Effective grid spacing dv^(1/3) = 0.1704

     iter     time        total  log10-change:
                         energy   eigst   dens
iter:   1 23:45:23  -117.675176
iter:   2 23:46:24  -116.965037   -1.43  -1.27
iter:   3 23:47:33  -114.205234   -1.91  -1.31
iter:   4 23:48:33  -113.878209   -2.00  -1.53
iter:   5 23:49:32  -113.940123   -2.62  -1.70
iter:   6 23:50:34  -113.788151c  -3.40  -1.98
iter:   7 23:51:36  -113.719199   -3.25  -2.20
iter:   8 23:52:33  -113.719652c  -4.24  -2.33
iter:   9 23:53:32  -113.719033c  -4.64  -2.74
iter:  10 23:54:32  -113.718098c  -4.85  -2.75
iter:  11 23:55:31  -113.718026c  -5.77  -3.24
iter:  12 23:56:31  -113.718013c  -6.65  -3.29
iter:  13 23:57:34  -113.717994c  -6.99  -3.29
iter:  14 23:58:36  -113.718143c  -5.71  -3.32
iter:  15 23:59:36  -113.718123c  -6.78  -3.53
iter:  16 00:00:44  -113.718178c  -6.66  -3.51
iter:  17 00:01:45  -113.718158c  -7.52c -3.56
iter:  18 00:02:50  -113.718183c  -6.32  -3.59
iter:  19 00:03:51  -113.718175c  -7.46c -3.81
iter:  20 00:04:50  -113.718141c  -6.68  -3.88
iter:  21 00:05:42  -113.718137c  -7.73c -4.23c

Converged after 21 iterations.

Dipole moment: (-0.009341, 67.850681, 18.126931) |e|*Ang

Energy contributions relative to reference atoms: (reference = -10684034.619125)

Kinetic:       +162.730534
Potential:     -182.099838
External:        +0.000000
XC:             -93.324886
Entropy (-ST):   -0.000171
Local:           -1.023860
SIC:             +0.000000
--------------------------
Free energy:   -113.718222
Extrapolated:  -113.718137

Showing only first 2 kpts
 Kpt  Band  Eigenvalues  Occupancy
  0   170      1.03538    1.99999
  0   171      1.13447    1.99998
  0   172      3.28926    0.00008
  0   173      3.86767    0.00000

  1   170      1.06555    1.99999
  1   171      1.11892    1.99998
  1   172      3.32068    0.00006
  1   173      3.83990    0.00000


Fermi level: 2.27509

Gap: 2.155 eV
Transition (v -> c):
  (s=0, k=0, n=171, [0.25, -0.25, -0.25]) -> (s=0, k=2, n=172, [0.25, 0.25, -0.25])
Direct/indirect transitions are different
Direct gap: 2.155 eV
Transition at: (s=0, k=0, n=171, [0.25, -0.25, -0.25])
Timing:                              incl.     excl.
-----------------------------------------------------------
Hamiltonian:                         3.446     0.043   0.0% |
 Atomic:                             1.071     0.002   0.0% |
  XC Correction:                     1.068     1.068   0.0% |
 Calculate atomic Hamiltonians:      1.566     1.566   0.0% |
 Communicate:                        0.000     0.000   0.0% |
 Initialize Hamiltonian:             0.001     0.001   0.0% |
 Poisson:                            0.020     0.020   0.0% |
 XC 3D grid:                         0.745     0.745   0.0% |
LCAO initialization:                84.328     0.093   0.0% |
 LCAO eigensolver:                   1.029     0.001   0.0% |
  Calculate projections:             0.011     0.011   0.0% |
  DenseAtomicCorrection:             0.030     0.030   0.0% |
  Distribute overlap matrix:         0.001     0.001   0.0% |
  Orbital Layouts:                   0.234     0.234   0.0% |
  Potential matrix:                  0.671     0.671   0.0% |
  Sum over cells:                    0.081     0.081   0.0% |
 LCAO to grid:                      82.248    82.248   2.0% ||
 Set positions (LCAO WFS):           0.958     0.483   0.0% |
  Basic WFS set positions:           0.000     0.000   0.0% |
  Basis functions set positions:     0.000     0.000   0.0% |
  P tci:                             0.388     0.388   0.0% |
  ST tci:                            0.077     0.077   0.0% |
  mktci:                             0.009     0.009   0.0% |
PWDescriptor:                        0.088     0.088   0.0% |
SCF-cycle:                        1279.950     0.059   0.0% |
 Davidson:                        1108.307   194.956   4.8% |-|
  Apply H:                         177.223   173.219   4.3% |-|
   HMM T:                            4.004     4.004   0.1% |
  Subspace diag:                   223.089     0.013   0.0% |
   calc_h_matrix:                  199.138    23.072   0.6% |
    Apply H:                       176.066   171.980   4.2% |-|
     HMM T:                          4.086     4.086   0.1% |
   diagonalize:                      4.052     4.052   0.1% |
   rotate_psi:                      19.885    19.885   0.5% |
  calc. matrices:                  449.968    96.653   2.4% ||
   Apply H:                        353.315   345.281   8.5% |--|
    HMM T:                           8.034     8.034   0.2% |
  diagonalize:                      26.646    26.646   0.7% |
  rotate_psi:                       36.426    36.426   0.9% |
 Density:                          114.508     0.000   0.0% |
  Atomic density matrices:           0.127     0.127   0.0% |
  Mix:                              27.337    27.337   0.7% |
  Multipole moments:                 0.009     0.009   0.0% |
  Pseudo density:                   87.035    87.034   2.1% ||
   Symmetrize density:               0.001     0.001   0.0% |
 Hamiltonian:                       53.302     0.195   0.0% |
  Atomic:                           18.625     0.049   0.0% |
   XC Correction:                   18.576    18.576   0.5% |
  Calculate atomic Hamiltonians:    21.199    21.199   0.5% |
  Communicate:                       0.000     0.000   0.0% |
  Poisson:                           0.239     0.239   0.0% |
  XC 3D grid:                       13.044    13.044   0.3% |
 Orthonormalize:                     3.774     0.001   0.0% |
  calc_s_matrix:                     0.355     0.355   0.0% |
  inverse-cholesky:                  0.092     0.092   0.0% |
  projections:                       2.651     2.651   0.1% |
  rotate_psi_s:                      0.675     0.675   0.0% |
Set symmetry:                        0.000     0.000   0.0% |
Other:                            2696.857  2696.857  66.3% |--------------------------|
-----------------------------------------------------------
Total:                                      4064.670 100.0%

Memory usage: 9.82 GiB
Date: Fri Jul 17 00:50:33 2026
