
  ___ ___ ___ _ _ _  
 |   |   |_  | | | | 
 | | | | | . | | | | 
 |__ |  _|___|_____|  25.7.0
 |___|_|             

User:   buyer@DESKTOP-3EQA59H
Date:   Fri Jul 17 00:05:43 2026
Arch:   x86_64
Pid:    28253
CWD:    /mnt/c/Users/Buyer/dft-si
Python: 3.11.15
gpaw:   /home/buyer/miniconda3/envs/dft/lib/python3.11/site-packages/gpaw
_gpaw:  /home/buyer/miniconda3/envs/dft/lib/python3.11/site-packages/
        _gpaw.cpython-311-x86_64-linux-gnu.so
ase:    /home/buyer/miniconda3/envs/dft/lib/python3.11/site-packages/ase (version 3.29.0)
numpy:  /home/buyer/miniconda3/envs/dft/lib/python3.11/site-packages/numpy (version 2.4.6)
scipy:  /home/buyer/miniconda3/envs/dft/lib/python3.11/site-packages/scipy (version 1.17.1)
libxc:  7.0.0
units:  Angstrom and eV
cores: 1
OpenMP: True
OMP_NUM_THREADS: 1

Input parameters:
  charge: 1
  kpts: [2 2 2]
  mode: {ecut: 600.0,
         name: pw}
  xc: PBE

System changes: positions, numbers, cell, pbc, initial_charges, initial_magmoms 

Initialize ...

species:
  Cs:
    name: Caesium
    id: fa822afd343f47335d508b9ee4f394c3
    Z: 55.0
    valence: 9
    core: 46
    charge: 0.0
    file: /home/buyer/miniconda3/envs/dft/lib/python3.11/site-packages/gpaw_data/setups/Cs.PBE.gz
    compensation charges: {type: gauss,
                           rc: 0.33,
                           lmax: 2}
    cutoffs: {filter: 2.06,
              core: 2.51}
    projectors:
      #              energy  rcut
      - 5s(2.00)   -26.706   1.164
      - 6s(1.00)    -2.085   1.164
      - 5p(6.00)   -13.523   1.058
      -  p          13.688   1.058
      -  d           0.000   1.058
  
    # Using partial waves for Cs as LCAO basis

  Pb:
    name: Lead
    id: 66e73b13d76dc837202bcdb13fee58e6
    Z: 82.0
    valence: 14
    core: 68
    charge: 0.0
    file: /home/buyer/miniconda3/envs/dft/lib/python3.11/site-packages/gpaw_data/setups/Pb.PBE.gz
    compensation charges: {type: gauss,
                           rc: 0.38,
                           lmax: 2}
    cutoffs: {filter: 2.36,
              core: 2.43}
    projectors:
      #              energy  rcut
      - 6s(2.00)   -11.969   1.259
      - 6p(2.00)    -3.506   1.275
      - 5d(10.00)   -21.211   1.217
      -  s          15.243   1.259
      -  p          23.705   1.275
      -  d           6.001   1.217
  
    # Using partial waves for Pb as LCAO basis

  I:
    name: Iodine
    id: 91405a398e4dfe788ff04f57531604ec
    Z: 53.0
    valence: 7
    core: 46
    charge: 0.0
    file: /home/buyer/miniconda3/envs/dft/lib/python3.11/site-packages/gpaw_data/setups/I.PBE.gz
    compensation charges: {type: gauss,
                           rc: 0.37,
                           lmax: 2}
    cutoffs: {filter: 2.06,
              core: 2.90}
    projectors:
      #              energy  rcut
      - 5s(2.00)   -17.382   1.164
      - 5p(5.00)    -7.088   1.164
      -  s           9.829   1.164
      -  p          20.123   1.164
      -  d           0.000   1.164
  
    # Using partial waves for I as LCAO basis

Reference energy: -10684034.619125  # eV

Spin-paired calculation

Convergence criteria:
 Maximum [total energy] change in last 3 cyles: 0.0005 eV / valence electron
 Maximum integral of absolute [dens]ity change: 0.0001 electrons / valence electron
 Maximum integral of absolute [eigenst]ate change: 4e-08 eV^2 / valence electron
 Maximum number of scf [iter]ations: 333
 (Square brackets indicate name in SCF output, whereas a 'c' in
 the SCF output indicates the quantity has converged.)

Symmetries present (total): 1

  ( 1  0  0)
  ( 0  1  0)
  ( 0  0  1)

8 k-points: 2 x 2 x 2 Monkhorst-Pack grid
4 k-points in the irreducible part of the Brillouin zone
       k-points in crystal coordinates                weights
   0:     0.25000000   -0.25000000   -0.25000000          2/8
   1:     0.25000000   -0.25000000    0.25000000          2/8
   2:     0.25000000    0.25000000   -0.25000000          2/8
   3:     0.25000000    0.25000000    0.25000000          2/8

Wave functions: Plane wave expansion
  Cutoff energy: 600.000 eV
  Number of coefficients (min, max): 69650, 69650
  Pulay-stress correction: 0.000000 eV/Ang^3 (de/decut=0.000000)
  Using FFTW library
  ScaLapack parameters: grid=1x1, blocksize=None
  Wavefunction extrapolation:
    Improved wavefunction reuse through dual PAW basis 

Occupation numbers: Fermi-Dirac:
  width: 0.1000  # eV
 

Eigensolver
   Davidson(niter=2) 

Densities:
  Coarse grid: 75*75*75 grid
  Fine grid: 150*150*150 grid
  Total Charge: 1.000000 

Density mixing:
  Method: separate
  Backend: pulay
  Linear mixing parameter: 0.05
  old densities: 5
  Damping of long wavelength oscillations: 50 

Hamiltonian:
  XC and Coulomb potentials evaluated on a 150*150*150 grid
  Using the PBE Exchange-Correlation functional
  External potential:
    NoExternalPotential
Poisson solver:
  Uniform background charge: 1.000 electrons
 

XC parameters: PBE with 2 nearest neighbor stencil

Memory estimate:
  Process memory now: 5024.08 MiB
  Calculator: 1460.82 MiB
    Density: 227.10 MiB
      Arrays: 83.68 MiB
      Localized functions: 111.23 MiB
      Mixer: 32.19 MiB
    Hamiltonian: 57.72 MiB
      Arrays: 54.72 MiB
      XC: 0.00 MiB
      Poisson: 0.00 MiB
      vbar: 3.01 MiB
    Wavefunctions: 1175.99 MiB
      Arrays psit_nG: 867.22 MiB
      Eigensolver: 228.48 MiB
      Projections: 6.81 MiB
      Projectors: 53.14 MiB
      PW-descriptor: 20.34 MiB

Total number of cores used: 1

Number of atoms: 39
Number of atomic orbitals: 204
Number of bands in calculation: 204
Number of valence electrons: 344
Bands to converge: occupied

... initialized

Initializing position-dependent things.

Density initialized from atomic densities
Creating initial wave functions:
  204 bands from LCAO basis set

         .-----------------------------Cs  
        /|                              |  
       / |                              |  
      /  |                              |  
     /   |                      I   Cs  |  
    /    |                              |  
   /     |     Pb      I  I   Pb      I |  
  /      |                              |  
 *       Cs I               I           |  
 |       |                              |  
 |       |Pb   I  I       Pb   I  I     |  
 |       |                              |  
 |   Cs  I          Cs                  |  
 |       |                              |  
 |     I |I    Pb      I  I    Pb       |  
 |       |                              |  
 |       .---I---Cs------Cs--I----------.  
 |      /                              /   
 |     /   Pb  I   I      Pb  I       /    
 |    /                              /     
 |   /   I           Cs  I          /      
 |  /I                             /       
 | /                              /        
 |/                              /         
 *------------------------------*          

Atomic positions and initial magnetic moments

Positions:
   0 Cs    -0.132161   -0.289842   -0.124558    ( 0.0000,  0.0000,  0.0000)
   1 Pb     3.255569    3.194999    3.242501    ( 0.0000,  0.0000,  0.0000)
   2 I      1.008883    3.195067    1.115965    ( 0.0000,  0.0000,  0.0000)
   3 I      3.393850    0.033114    3.394658    ( 0.0000,  0.0000,  0.0000)
   4 Cs     0.060191   -0.239824    6.653501    ( 0.0000,  0.0000,  0.0000)
   5 Pb     3.055989    3.194995    9.559872    ( 0.0000,  0.0000,  0.0000)
   6 I      3.089362    3.194748    6.469197    ( 0.0000,  0.0000,  0.0000)
   7 I     -0.102802    3.194992    9.265221    ( 0.0000,  0.0000,  0.0000)
   8 I      3.090277    0.016160    9.755618    ( 0.0000,  0.0000,  0.0000)
   9 Cs    -0.132222    6.679876   -0.124611    ( 0.0000,  0.0000,  0.0000)
  10 Pb     3.288085    9.584989    3.287500    ( 0.0000,  0.0000,  0.0000)
  11 I      3.277514    9.584704    0.098767    ( 0.0000,  0.0000,  0.0000)
  12 I      0.098802    9.584993    3.240793    ( 0.0000,  0.0000,  0.0000)
  13 I      3.393756    6.356881    3.395223    ( 0.0000,  0.0000,  0.0000)
  14 Cs     0.060236    6.629862    6.653461    ( 0.0000,  0.0000,  0.0000)
  15 Pb     3.219292    9.585012    9.689772    ( 0.0000,  0.0000,  0.0000)
  16 I      3.172303    9.585293    6.493913    ( 0.0000,  0.0000,  0.0000)
  17 I     -0.000622    9.585017    9.656653    ( 0.0000,  0.0000,  0.0000)
  18 I      3.090245    6.373861    9.755050    ( 0.0000,  0.0000,  0.0000)
  19 Cs     6.648336   -0.215382    0.053598    ( 0.0000,  0.0000,  0.0000)
  20 Pb     9.582912    3.195012    3.055385    ( 0.0000,  0.0000,  0.0000)
  21 I      9.341850    3.195049   -0.102752    ( 0.0000,  0.0000,  0.0000)
  22 I      6.483371    3.195026    3.011834    ( 0.0000,  0.0000,  0.0000)
  23 I      9.754270    0.014387    3.102605    ( 0.0000,  0.0000,  0.0000)
  24 Cs     6.395437    0.071298    6.390008    ( 0.0000,  0.0000,  0.0000)
  25 Pb     9.484490    3.195004    9.480818    ( 0.0000,  0.0000,  0.0000)
  26 I      9.362350    3.194972    6.261393    ( 0.0000,  0.0000,  0.0000)
  27 I      6.257245    3.195025    9.491799    ( 0.0000,  0.0000,  0.0000)
  28 I      9.561758   -0.009031    9.559679    ( 0.0000,  0.0000,  0.0000)
  29 Cs     6.648429    6.605409    0.053587    ( 0.0000,  0.0000,  0.0000)
  30 Pb     9.688275    9.585010    3.221882    ( 0.0000,  0.0000,  0.0000)
  31 I      9.618397    9.584988    0.002395    ( 0.0000,  0.0000,  0.0000)
  32 I      6.493528    9.584996    3.221138    ( 0.0000,  0.0000,  0.0000)
  33 I      9.754234    6.375633    3.102655    ( 0.0000,  0.0000,  0.0000)
  34 Cs     6.395458    6.318696    6.390072    ( 0.0000,  0.0000,  0.0000)
  35 Pb     9.566014    9.585010    9.569140    ( 0.0000,  0.0000,  0.0000)
  36 I      9.700585    9.585034    6.396303    ( 0.0000,  0.0000,  0.0000)
  37 I      6.392572    9.584986    9.652776    ( 0.0000,  0.0000,  0.0000)
  38 I      9.561778    6.399045    9.559627    ( 0.0000,  0.0000,  0.0000)

Unit cell:
           periodic     x           y           z      points  spacing
  1. axis:    yes   12.780000    0.000000    0.000000    75     0.1704
  2. axis:    yes    0.000000   12.780000    0.000000    75     0.1704
  3. axis:    yes    0.000000    0.000000   12.780000    75     0.1704

  Lengths:  12.780000  12.780000  12.780000
  Angles:   90.000000  90.000000  90.000000

Effective grid spacing dv^(1/3) = 0.1704

     iter     time        total  log10-change:
                         energy   eigst   dens
iter:   1 00:08:05  -117.616475
iter:   2 00:09:42  -116.909113   -1.43  -1.27
iter:   3 00:10:46  -114.160194   -1.91  -1.31
iter:   4 00:12:00  -113.835137   -2.00  -1.53
iter:   5 00:13:03  -113.898239   -2.62  -1.70
iter:   6 00:14:06  -113.747939c  -3.41  -1.98
iter:   7 00:15:12  -113.676972   -3.25  -2.20
iter:   8 00:16:12  -113.677764c  -4.22  -2.32
iter:   9 00:17:10  -113.676948c  -4.64  -2.74
iter:  10 00:18:12  -113.676143c  -4.84  -2.75
iter:  11 00:19:12  -113.676068c  -5.76  -3.23
iter:  12 00:20:13  -113.676047c  -6.65  -3.28
iter:  13 00:21:12  -113.676019c  -6.72  -3.28
iter:  14 00:22:10  -113.676175c  -5.72  -3.33
iter:  15 00:23:07  -113.676157c  -6.79  -3.53
iter:  16 00:24:00  -113.676218c  -6.58  -3.51
iter:  17 00:24:57  -113.676210c  -7.16  -3.54
iter:  18 00:25:52  -113.676215c  -7.17  -3.57
iter:  19 00:26:47  -113.676178c  -6.14  -3.62
iter:  20 00:27:43  -113.676179c  -7.22  -3.93
iter:  21 00:28:37  -113.676180c  -6.65  -3.95
iter:  22 00:29:33  -113.676173c  -7.64c -4.22c

Converged after 22 iterations.

Dipole moment: (12.524237, 70.035872, 14.325773) |e|*Ang

Energy contributions relative to reference atoms: (reference = -10684034.619125)

Kinetic:       +164.159718
Potential:     -183.291582
External:        +0.000000
XC:             -93.546302
Entropy (-ST):   -0.000157
Local:           -0.997929
SIC:             +0.000000
--------------------------
Free energy:   -113.676251
Extrapolated:  -113.676173

Showing only first 2 kpts
 Kpt  Band  Eigenvalues  Occupancy
  0   170      1.03494    1.99999
  0   171      1.13431    1.99998
  0   172      3.30258    0.00008
  0   173      3.88112    0.00000

  1   170      1.06690    1.99999
  1   171      1.12258    1.99998
  1   172      3.34660    0.00005
  1   173      3.80876    0.00000


Fermi level: 2.28382

Gap: 2.168 eV
Transition (v -> c):
  (s=0, k=0, n=171, [0.25, -0.25, -0.25]) -> (s=0, k=2, n=172, [0.25, 0.25, -0.25])
Direct/indirect transitions are different
Direct gap: 2.168 eV
Transition at: (s=0, k=2, n=171, [0.25, 0.25, -0.25])
Timing:                              incl.     excl.
-----------------------------------------------------------
Hamiltonian:                         2.544     0.010   0.0% |
 Atomic:                             0.907     0.002   0.0% |
  XC Correction:                     0.906     0.906   0.0% |
 Calculate atomic Hamiltonians:      0.983     0.983   0.0% |
 Communicate:                        0.000     0.000   0.0% |
 Initialize Hamiltonian:             0.001     0.001   0.0% |
 Poisson:                            0.012     0.012   0.0% |
 XC 3D grid:                         0.630     0.630   0.0% |
LCAO initialization:                68.381     0.086   0.0% |
 LCAO eigensolver:                   0.797     0.001   0.0% |
  Calculate projections:             0.012     0.012   0.0% |
  DenseAtomicCorrection:             0.011     0.011   0.0% |
  Distribute overlap matrix:         0.001     0.001   0.0% |
  Orbital Layouts:                   0.076     0.076   0.0% |
  Potential matrix:                  0.661     0.661   0.0% |
  Sum over cells:                    0.036     0.036   0.0% |
 LCAO to grid:                      66.920    66.920   2.5% ||
 Set positions (LCAO WFS):           0.578     0.059   0.0% |
  Basic WFS set positions:           0.000     0.000   0.0% |
  Basis functions set positions:     0.000     0.000   0.0% |
  P tci:                             0.431     0.431   0.0% |
  ST tci:                            0.076     0.076   0.0% |
  mktci:                             0.011     0.011   0.0% |
PWDescriptor:                        0.067     0.067   0.0% |
SCF-cycle:                        1355.323     0.078   0.0% |
 Davidson:                        1174.576   217.647   8.1% |--|
  Apply H:                         182.606   178.398   6.6% |--|
   HMM T:                            4.207     4.207   0.2% |
  Subspace diag:                   230.382     0.016   0.0% |
   calc_h_matrix:                  203.041    22.629   0.8% |
    Apply H:                       180.412   176.037   6.5% |--|
     HMM T:                          4.375     4.375   0.2% |
   diagonalize:                      6.805     6.805   0.3% |
   rotate_psi:                      20.520    20.520   0.8% |
  calc. matrices:                  468.327   104.195   3.9% |-|
   Apply H:                        364.132   355.957  13.2% |----|
    HMM T:                           8.175     8.175   0.3% |
  diagonalize:                      37.511    37.511   1.4% ||
  rotate_psi:                       38.104    38.104   1.4% ||
 Density:                          119.161     0.000   0.0% |
  Atomic density matrices:           0.137     0.137   0.0% |
  Mix:                              29.558    29.558   1.1% |
  Multipole moments:                 0.008     0.008   0.0% |
  Pseudo density:                   89.457    89.457   3.3% ||
   Symmetrize density:               0.000     0.000   0.0% |
 Hamiltonian:                       57.978     0.192   0.0% |
  Atomic:                           19.730     0.051   0.0% |
   XC Correction:                   19.680    19.680   0.7% |
  Calculate atomic Hamiltonians:    23.974    23.974   0.9% |
  Communicate:                       0.000     0.000   0.0% |
  Poisson:                           0.254     0.254   0.0% |
  XC 3D grid:                       13.827    13.827   0.5% |
 Orthonormalize:                     3.531     0.001   0.0% |
  calc_s_matrix:                     0.408     0.408   0.0% |
  inverse-cholesky:                  0.011     0.011   0.0% |
  projections:                       2.549     2.549   0.1% |
  rotate_psi_s:                      0.562     0.562   0.0% |
Set symmetry:                        0.001     0.001   0.0% |
Other:                            1263.113  1263.113  47.0% |------------------|
-----------------------------------------------------------
Total:                                      2689.429 100.0%

Memory usage: 9.82 GiB
Date: Fri Jul 17 00:50:32 2026
