39
Lattice="12.78 0.0 0.0 0.0 12.78 0.0 0.0 0.0 12.78" Properties=species:S:1:pos:R:3:magmoms:R:1:forces:R:3 spacegroup="P m -3 m" unit_cell=conventional energy=-113.81694487555968 free_energy=-113.81701975644768 dipole="88.8082063262139 88.8082063262136 -2.6300958630480234e-13" magmom=0.0 pbc="T T T"
Cs      -0.26080315      -0.26080315      -0.00000000       0.00000000       0.01762223       0.01762223       0.00000000
Pb       3.19501668       3.19501668       3.30284674       0.00000000       0.00000613       0.00000613       0.02505112
I        0.03463748       3.19495676       3.01349571       0.00000000      -0.00650278       0.00001530      -0.01209536
I        3.19495676       0.03463748       3.01349571       0.00000000       0.00001530      -0.00650278      -0.01209536
Cs      -0.12168628      -0.12168628       6.39000000       0.00000000      -0.01022601      -0.01022601       0.00000000
Pb       3.19501668       3.19501668       9.47715326       0.00000000       0.00000613       0.00000613      -0.02505112
I        3.19492764       3.19492764       6.39000000       0.00000000      -0.00000751      -0.00000751       0.00000000
I        0.03463748       3.19495676       9.76650429       0.00000000      -0.00650278       0.00001530       0.01209536
I        3.19495676       0.03463748       9.76650429       0.00000000       0.00001530      -0.00650278       0.01209536
Cs      -0.26080671       6.65082507      -0.00000000       0.00000000       0.01762099      -0.01761028       0.00000000
Pb       3.19498699       9.58506407       3.17822982       0.00000000       0.00000714      -0.00002681       0.00149803
I        3.19496513       9.58500069      -0.00000000       0.00000000       0.00001034      -0.00001968       0.00000000
I       -0.00701829       9.58503679       3.19368055       0.00000000       0.01400931      -0.00001186       0.00582226
I        3.19495360       6.35538362       3.01356161       0.00000000       0.00001752       0.00652770      -0.01207286
Cs      -0.12168219       6.51169661       6.39000000       0.00000000      -0.01022579       0.01023537       0.00000000
Pb       3.19498699       9.58506407       9.60177018       0.00000000       0.00000714      -0.00002681      -0.00149803
I        3.19495579       9.58507655       6.39000000       0.00000000       0.00001360       0.00000161       0.00000000
I       -0.00701829       9.58503679       9.58631945       0.00000000       0.01400931      -0.00001186      -0.00582226
I        3.19495360       6.35538362       9.76643839       0.00000000       0.00001752       0.00652770       0.01207286
Cs       6.65082507      -0.26080671      -0.00000000       0.00000000      -0.01761028       0.01762099       0.00000000
Pb       9.58506407       3.19498699       3.17822982       0.00000000      -0.00002681       0.00000714       0.00149803
I        9.58500069       3.19496513       0.00000000       0.00000000      -0.00001968       0.00001034       0.00000000
I        6.35538362       3.19495360       3.01356161       0.00000000       0.00652770       0.00001752      -0.01207286
I        9.58503679      -0.00701829       3.19368055       0.00000000      -0.00001186       0.01400931       0.00582226
Cs       6.51169661      -0.12168219       6.39000000       0.00000000       0.01023537      -0.01022579       0.00000000
Pb       9.58506407       3.19498699       9.60177018       0.00000000      -0.00002681       0.00000714      -0.00149803
I        9.58507655       3.19495579       6.39000000       0.00000000       0.00000161       0.00001360       0.00000000
I        6.35538362       3.19495360       9.76643839       0.00000000       0.00652770       0.00001752       0.01207286
I        9.58503679      -0.00701829       9.58631945       0.00000000      -0.00001186       0.01400931      -0.00582226
Cs       6.65083132       6.65083132      -0.00000000       0.00000000      -0.01760916      -0.01760916       0.00000000
Pb       9.58502431       9.58502431       3.21420712       0.00000000      -0.00001764      -0.00001764      -0.00516797
I        9.58503465       9.58503465       0.00000000       0.00000000      -0.00002031      -0.00002031       0.00000000
I        6.39701907       9.58503885       3.19368361       0.00000000      -0.01399878      -0.00001387       0.00582368
I        9.58503885       6.39701907       3.19368361       0.00000000      -0.00001387      -0.01399878       0.00582368
Cs       6.51169325       6.51169325       6.39000000       0.00000000       0.01023555       0.01023555       0.00000000
Pb       9.58502431       9.58502431       9.56579288       0.00000000      -0.00001764      -0.00001764       0.00516797
I        9.58503930       9.58503930       6.39000000       0.00000000      -0.00001495      -0.00001495       0.00000000
I        6.39701907       9.58503885       9.58631639       0.00000000      -0.01399878      -0.00001387      -0.00582368
I        9.58503885       6.39701907       9.58631639       0.00000000      -0.00001387      -0.01399878      -0.00582368
