
  ___ ___ ___ _ _ _  
 |   |   |_  | | | | 
 | | | | | . | | | | 
 |__ |  _|___|_____|  25.7.0
 |___|_|             

User:   buyer@DESKTOP-3EQA59H
Date:   Fri Jul 17 02:04:07 2026
Arch:   x86_64
Pid:    28647
CWD:    /mnt/c/Users/Buyer/dft-si
Python: 3.11.15
gpaw:   /home/buyer/miniconda3/envs/dft/lib/python3.11/site-packages/gpaw
_gpaw:  /home/buyer/miniconda3/envs/dft/lib/python3.11/site-packages/
        _gpaw.cpython-311-x86_64-linux-gnu.so
ase:    /home/buyer/miniconda3/envs/dft/lib/python3.11/site-packages/ase (version 3.29.0)
numpy:  /home/buyer/miniconda3/envs/dft/lib/python3.11/site-packages/numpy (version 2.4.6)
scipy:  /home/buyer/miniconda3/envs/dft/lib/python3.11/site-packages/scipy (version 1.17.1)
libxc:  7.0.0
units:  Angstrom and eV
cores: 1
OpenMP: True
OMP_NUM_THREADS: 1

Input parameters:
  charge: 1
  kpts: [2 2 2]
  mode: {ecut: 600.0,
         name: pw}
  xc: PBE

System changes: positions, numbers, cell, pbc, initial_charges, initial_magmoms 

Initialize ...

species:
  Cs:
    name: Caesium
    id: fa822afd343f47335d508b9ee4f394c3
    Z: 55.0
    valence: 9
    core: 46
    charge: 0.0
    file: /home/buyer/miniconda3/envs/dft/lib/python3.11/site-packages/gpaw_data/setups/Cs.PBE.gz
    compensation charges: {type: gauss,
                           rc: 0.33,
                           lmax: 2}
    cutoffs: {filter: 2.06,
              core: 2.51}
    projectors:
      #              energy  rcut
      - 5s(2.00)   -26.706   1.164
      - 6s(1.00)    -2.085   1.164
      - 5p(6.00)   -13.523   1.058
      -  p          13.688   1.058
      -  d           0.000   1.058
  
    # Using partial waves for Cs as LCAO basis

  Pb:
    name: Lead
    id: 66e73b13d76dc837202bcdb13fee58e6
    Z: 82.0
    valence: 14
    core: 68
    charge: 0.0
    file: /home/buyer/miniconda3/envs/dft/lib/python3.11/site-packages/gpaw_data/setups/Pb.PBE.gz
    compensation charges: {type: gauss,
                           rc: 0.38,
                           lmax: 2}
    cutoffs: {filter: 2.36,
              core: 2.43}
    projectors:
      #              energy  rcut
      - 6s(2.00)   -11.969   1.259
      - 6p(2.00)    -3.506   1.275
      - 5d(10.00)   -21.211   1.217
      -  s          15.243   1.259
      -  p          23.705   1.275
      -  d           6.001   1.217
  
    # Using partial waves for Pb as LCAO basis

  I:
    name: Iodine
    id: 91405a398e4dfe788ff04f57531604ec
    Z: 53.0
    valence: 7
    core: 46
    charge: 0.0
    file: /home/buyer/miniconda3/envs/dft/lib/python3.11/site-packages/gpaw_data/setups/I.PBE.gz
    compensation charges: {type: gauss,
                           rc: 0.37,
                           lmax: 2}
    cutoffs: {filter: 2.06,
              core: 2.90}
    projectors:
      #              energy  rcut
      - 5s(2.00)   -17.382   1.164
      - 5p(5.00)    -7.088   1.164
      -  s           9.829   1.164
      -  p          20.123   1.164
      -  d           0.000   1.164
  
    # Using partial waves for I as LCAO basis

Reference energy: -10684034.619125  # eV

Spin-paired calculation

Convergence criteria:
 Maximum [total energy] change in last 3 cyles: 0.0005 eV / valence electron
 Maximum integral of absolute [dens]ity change: 0.0001 electrons / valence electron
 Maximum integral of absolute [eigenst]ate change: 4e-08 eV^2 / valence electron
 Maximum number of scf [iter]ations: 333
 (Square brackets indicate name in SCF output, whereas a 'c' in
 the SCF output indicates the quantity has converged.)

Symmetries present (total): 1

  ( 1  0  0)
  ( 0  1  0)
  ( 0  0  1)

8 k-points: 2 x 2 x 2 Monkhorst-Pack grid
4 k-points in the irreducible part of the Brillouin zone
       k-points in crystal coordinates                weights
   0:     0.25000000   -0.25000000   -0.25000000          2/8
   1:     0.25000000   -0.25000000    0.25000000          2/8
   2:     0.25000000    0.25000000   -0.25000000          2/8
   3:     0.25000000    0.25000000    0.25000000          2/8

Wave functions: Plane wave expansion
  Cutoff energy: 600.000 eV
  Number of coefficients (min, max): 69650, 69650
  Pulay-stress correction: 0.000000 eV/Ang^3 (de/decut=0.000000)
  Using FFTW library
  ScaLapack parameters: grid=1x1, blocksize=None
  Wavefunction extrapolation:
    Improved wavefunction reuse through dual PAW basis 

Occupation numbers: Fermi-Dirac:
  width: 0.1000  # eV
 

Eigensolver
   Davidson(niter=2) 

Densities:
  Coarse grid: 75*75*75 grid
  Fine grid: 150*150*150 grid
  Total Charge: 1.000000 

Density mixing:
  Method: separate
  Backend: pulay
  Linear mixing parameter: 0.05
  old densities: 5
  Damping of long wavelength oscillations: 50 

Hamiltonian:
  XC and Coulomb potentials evaluated on a 150*150*150 grid
  Using the PBE Exchange-Correlation functional
  External potential:
    NoExternalPotential
Poisson solver:
  Uniform background charge: 1.000 electrons
 

XC parameters: PBE with 2 nearest neighbor stencil

Memory estimate:
  Process memory now: 3011.30 MiB
  Calculator: 1460.82 MiB
    Density: 227.10 MiB
      Arrays: 83.68 MiB
      Localized functions: 111.23 MiB
      Mixer: 32.19 MiB
    Hamiltonian: 57.72 MiB
      Arrays: 54.72 MiB
      XC: 0.00 MiB
      Poisson: 0.00 MiB
      vbar: 3.01 MiB
    Wavefunctions: 1175.99 MiB
      Arrays psit_nG: 867.22 MiB
      Eigensolver: 228.48 MiB
      Projections: 6.81 MiB
      Projectors: 53.14 MiB
      PW-descriptor: 20.34 MiB

Total number of cores used: 1

Number of atoms: 39
Number of atomic orbitals: 204
Number of bands in calculation: 204
Number of valence electrons: 344
Bands to converge: occupied

... initialized

Initializing position-dependent things.

Density initialized from atomic densities
Creating initial wave functions:
  204 bands from LCAO basis set

         .-----------------------------Cs  
        /|                              |  
       / |                              |  
      /  |                              |  
     /   |                      I   Cs  |  
    /    |                              |  
   /     |     Pb      I  I   Pb      I |  
  /      |                              |  
 *       Cs I               I           |  
 |       |                              |  
 |       |Pb   I  I       Pb   I  I     |  
 |       |                              |  
 |   Cs  I          Cs                  |  
 |       |                              |  
 |     I |I    Pb      I  I    Pb       |  
 |       |                              |  
 |       .---I---Cs------Cs--I----------.  
 |      /                              /   
 |     /   Pb  I   I      Pb  I       /    
 |    /                              /     
 |   /   I           Cs  I          /      
 |  /I                             /       
 | /                              /        
 |/                              /         
 *------------------------------*          

Atomic positions and initial magnetic moments

Positions:
   0 Cs    -0.132161   -0.289842   -0.124558    ( 0.0000,  0.0000,  0.0000)
   1 Pb     3.255569    3.194999    3.242501    ( 0.0000,  0.0000,  0.0000)
   2 I      1.008883    3.195067    1.115965    ( 0.0000,  0.0000,  0.0000)
   3 I      3.393850    0.033114    3.394658    ( 0.0000,  0.0000,  0.0000)
   4 Cs     0.060191   -0.239824    6.653501    ( 0.0000,  0.0000,  0.0000)
   5 Pb     3.055989    3.194995    9.559872    ( 0.0000,  0.0000,  0.0000)
   6 I      3.089362    3.194748    6.469197    ( 0.0000,  0.0000,  0.0000)
   7 I     -0.102802    3.194992    9.265221    ( 0.0000,  0.0000,  0.0000)
   8 I      3.090277    0.016160    9.755618    ( 0.0000,  0.0000,  0.0000)
   9 Cs    -0.132222    6.679876   -0.124611    ( 0.0000,  0.0000,  0.0000)
  10 Pb     3.288085    9.584989    3.287500    ( 0.0000,  0.0000,  0.0000)
  11 I      3.277514    9.584704    0.098767    ( 0.0000,  0.0000,  0.0000)
  12 I      0.098802    9.584993    3.240793    ( 0.0000,  0.0000,  0.0000)
  13 I      3.393756    6.356881    3.395223    ( 0.0000,  0.0000,  0.0000)
  14 Cs     0.060236    6.629862    6.653461    ( 0.0000,  0.0000,  0.0000)
  15 Pb     3.219292    9.585012    9.689772    ( 0.0000,  0.0000,  0.0000)
  16 I      3.172303    9.585293    6.493913    ( 0.0000,  0.0000,  0.0000)
  17 I     -0.000622    9.585017    9.656653    ( 0.0000,  0.0000,  0.0000)
  18 I      3.090245    6.373861    9.755050    ( 0.0000,  0.0000,  0.0000)
  19 Cs     6.648336   -0.215382    0.053598    ( 0.0000,  0.0000,  0.0000)
  20 Pb     9.582912    3.195012    3.055385    ( 0.0000,  0.0000,  0.0000)
  21 I      9.341850    3.195049   -0.102752    ( 0.0000,  0.0000,  0.0000)
  22 I      6.483371    3.195026    3.011834    ( 0.0000,  0.0000,  0.0000)
  23 I      9.754270    0.014387    3.102605    ( 0.0000,  0.0000,  0.0000)
  24 Cs     6.395437    0.071298    6.390008    ( 0.0000,  0.0000,  0.0000)
  25 Pb     9.484490    3.195004    9.480818    ( 0.0000,  0.0000,  0.0000)
  26 I      9.362350    3.194972    6.261393    ( 0.0000,  0.0000,  0.0000)
  27 I      6.257245    3.195025    9.491799    ( 0.0000,  0.0000,  0.0000)
  28 I      9.561758   -0.009031    9.559679    ( 0.0000,  0.0000,  0.0000)
  29 Cs     6.648429    6.605409    0.053587    ( 0.0000,  0.0000,  0.0000)
  30 Pb     9.688275    9.585010    3.221882    ( 0.0000,  0.0000,  0.0000)
  31 I      9.618397    9.584988    0.002395    ( 0.0000,  0.0000,  0.0000)
  32 I      6.493528    9.584996    3.221138    ( 0.0000,  0.0000,  0.0000)
  33 I      9.754234    6.375633    3.102655    ( 0.0000,  0.0000,  0.0000)
  34 Cs     6.395458    6.318696    6.390072    ( 0.0000,  0.0000,  0.0000)
  35 Pb     9.566014    9.585010    9.569140    ( 0.0000,  0.0000,  0.0000)
  36 I      9.700585    9.585034    6.396303    ( 0.0000,  0.0000,  0.0000)
  37 I      6.392572    9.584986    9.652776    ( 0.0000,  0.0000,  0.0000)
  38 I      9.561778    6.399045    9.559627    ( 0.0000,  0.0000,  0.0000)

Unit cell:
           periodic     x           y           z      points  spacing
  1. axis:    yes   12.780000    0.000000    0.000000    75     0.1704
  2. axis:    yes    0.000000   12.780000    0.000000    75     0.1704
  3. axis:    yes    0.000000    0.000000   12.780000    75     0.1704

  Lengths:  12.780000  12.780000  12.780000
  Angles:   90.000000  90.000000  90.000000

Effective grid spacing dv^(1/3) = 0.1704

     iter     time        total  log10-change:
                         energy   eigst   dens
iter:   1 02:06:14  -117.616475
iter:   2 02:07:07  -116.909113   -1.43  -1.27
iter:   3 02:08:00  -114.160194   -1.91  -1.31
iter:   4 02:08:52  -113.835137   -2.00  -1.53
iter:   5 02:09:45  -113.898239   -2.62  -1.70
iter:   6 02:10:37  -113.747939c  -3.41  -1.98
iter:   7 02:11:30  -113.676972   -3.25  -2.20
iter:   8 02:12:23  -113.677764c  -4.22  -2.32
iter:   9 02:13:16  -113.676948c  -4.64  -2.74
iter:  10 02:14:09  -113.676143c  -4.84  -2.75
iter:  11 02:15:01  -113.676068c  -5.76  -3.23
iter:  12 02:15:53  -113.676047c  -6.65  -3.28
iter:  13 02:16:45  -113.676019c  -6.72  -3.28
iter:  14 02:17:38  -113.676175c  -5.72  -3.33
iter:  15 02:18:30  -113.676157c  -6.79  -3.53
iter:  16 02:19:22  -113.676218c  -6.58  -3.51
iter:  17 02:20:15  -113.676210c  -7.16  -3.54
iter:  18 02:21:07  -113.676215c  -7.17  -3.57
iter:  19 02:21:59  -113.676178c  -6.14  -3.62
iter:  20 02:22:53  -113.676179c  -7.22  -3.93
iter:  21 02:23:47  -113.676180c  -6.65  -3.95
iter:  22 02:24:39  -113.676173c  -7.64c -4.22c

Converged after 22 iterations.

Dipole moment: (12.524237, 70.035872, 14.325773) |e|*Ang

Energy contributions relative to reference atoms: (reference = -10684034.619125)

Kinetic:       +164.159718
Potential:     -183.291582
External:        +0.000000
XC:             -93.546302
Entropy (-ST):   -0.000157
Local:           -0.997929
SIC:             +0.000000
--------------------------
Free energy:   -113.676251
Extrapolated:  -113.676173

Showing only first 2 kpts
 Kpt  Band  Eigenvalues  Occupancy
  0   170      1.03494    1.99999
  0   171      1.13431    1.99998
  0   172      3.30258    0.00008
  0   173      3.88112    0.00000

  1   170      1.06690    1.99999
  1   171      1.12258    1.99998
  1   172      3.34660    0.00005
  1   173      3.80876    0.00000


Fermi level: 2.28382

Gap: 2.168 eV
Transition (v -> c):
  (s=0, k=0, n=171, [0.25, -0.25, -0.25]) -> (s=0, k=2, n=172, [0.25, 0.25, -0.25])
Direct/indirect transitions are different
Direct gap: 2.168 eV
Transition at: (s=0, k=2, n=171, [0.25, 0.25, -0.25])

Forces in eV/Ang:
  0 Cs   -0.01933   -0.06640   -0.01428
  1 Pb   -0.03394   -0.00003   -0.02091
  2 I     0.09361    0.00000    0.10352
  3 I    -0.01743   -0.02050   -0.02033
  4 Cs   -0.00671   -0.03569    0.02703
  5 Pb    0.01185   -0.00005   -0.10363
  6 I    -0.03446   -0.00008   -0.01158
  7 I    -0.01710   -0.00000    0.03197
  8 I    -0.00559    0.02907    0.04296
  9 Cs   -0.01934    0.06642   -0.01430
 10 Pb   -0.01036    0.00004   -0.01082
 11 I    -0.00718   -0.00004    0.00669
 12 I     0.00718    0.00001   -0.01597
 13 I    -0.01746    0.02051   -0.02027
 14 Cs   -0.00670    0.03571    0.02701
 15 Pb   -0.00746    0.00005   -0.00463
 16 I     0.00416    0.00003    0.00586
 17 I     0.00588    0.00001   -0.00222
 18 I    -0.00559   -0.02905    0.04291
 19 Cs    0.02935   -0.03208   -0.00716
 20 Pb   -0.11421   -0.00003    0.00251
 21 I     0.04317    0.00000   -0.01110
 22 I    -0.00695    0.00001   -0.05186
 23 I     0.04268    0.03339   -0.00394
 24 Cs    0.01572   -0.01635    0.01428
 25 Pb   -0.00954   -0.00004   -0.00973
 26 I     0.03318   -0.00000   -0.01529
 27 I    -0.02047    0.00000    0.03753
 28 I     0.00036    0.04045    0.00062
 29 Cs    0.02937    0.03209   -0.00716
 30 Pb   -0.00508    0.00004   -0.00842
 31 I    -0.00445    0.00000    0.00552
 32 I     0.00451   -0.00000    0.00913
 33 I     0.04269   -0.03338   -0.00393
 34 Cs    0.01573    0.01635    0.01430
 35 Pb    0.00499    0.00004    0.00580
 36 I     0.00173    0.00001   -0.00794
 37 I    -0.00876    0.00000   -0.00462
 38 I     0.00037   -0.04045    0.00062

System changes: positions 

Initializing position-dependent things.

Density initialized from wave functions
         .-----------------------------Cs  
        /|                              |  
       / |                              |  
      /  |                              |  
     /   |                      I   Cs  |  
    /    |                              |  
   /     |     Pb      I  I   Pb      I |  
  /      |                              |  
 *       Cs I               I           |  
 |       |                              |  
 |       |Pb   I  I       Pb   I  I     |  
 |       |                              |  
 |   Cs  I          Cs                  |  
 |       |                              |  
 |     I |I    Pb      I  I    Pb       |  
 |       |                              |  
 |       .---I---Cs------Cs--I----------.  
 |      /                              /   
 |     /   Pb  I   I      Pb  I       /    
 |    /                              /     
 |   /   I           Cs  I          /      
 |  /I                             /       
 | /                              /        
 |/                              /         
 *------------------------------*          

Atomic positions and initial magnetic moments

Positions:
   0 Cs    -0.132437   -0.290791   -0.124762    ( 0.0000,  0.0000,  0.0000)
   1 Pb     3.255084    3.194999    3.242202    ( 0.0000,  0.0000,  0.0000)
   2 I      1.010220    3.195067    1.117444    ( 0.0000,  0.0000,  0.0000)
   3 I      3.393601    0.032821    3.394368    ( 0.0000,  0.0000,  0.0000)
   4 Cs     0.060095   -0.240334    6.653887    ( 0.0000,  0.0000,  0.0000)
   5 Pb     3.056158    3.194995    9.558392    ( 0.0000,  0.0000,  0.0000)
   6 I      3.088870    3.194747    6.469031    ( 0.0000,  0.0000,  0.0000)
   7 I     -0.103047    3.194992    9.265678    ( 0.0000,  0.0000,  0.0000)
   8 I      3.090198    0.016575    9.756231    ( 0.0000,  0.0000,  0.0000)
   9 Cs    -0.132498    6.680825   -0.124815    ( 0.0000,  0.0000,  0.0000)
  10 Pb     3.287937    9.584990    3.287345    ( 0.0000,  0.0000,  0.0000)
  11 I      3.277411    9.584703    0.098863    ( 0.0000,  0.0000,  0.0000)
  12 I      0.098905    9.584993    3.240565    ( 0.0000,  0.0000,  0.0000)
  13 I      3.393506    6.357174    3.394933    ( 0.0000,  0.0000,  0.0000)
  14 Cs     0.060140    6.630372    6.653847    ( 0.0000,  0.0000,  0.0000)
  15 Pb     3.219185    9.585013    9.689706    ( 0.0000,  0.0000,  0.0000)
  16 I      3.172363    9.585294    6.493997    ( 0.0000,  0.0000,  0.0000)
  17 I     -0.000538    9.585017    9.656621    ( 0.0000,  0.0000,  0.0000)
  18 I      3.090165    6.373446    9.755663    ( 0.0000,  0.0000,  0.0000)
  19 Cs     6.648755   -0.215841    0.053496    ( 0.0000,  0.0000,  0.0000)
  20 Pb     9.581281    3.195011    3.055421    ( 0.0000,  0.0000,  0.0000)
  21 I      9.342467    3.195049   -0.102910    ( 0.0000,  0.0000,  0.0000)
  22 I      6.483272    3.195026    3.011093    ( 0.0000,  0.0000,  0.0000)
  23 I      9.754880    0.014864    3.102548    ( 0.0000,  0.0000,  0.0000)
  24 Cs     6.395662    0.071065    6.390212    ( 0.0000,  0.0000,  0.0000)
  25 Pb     9.484354    3.195004    9.480679    ( 0.0000,  0.0000,  0.0000)
  26 I      9.362824    3.194972    6.261175    ( 0.0000,  0.0000,  0.0000)
  27 I      6.256953    3.195025    9.492335    ( 0.0000,  0.0000,  0.0000)
  28 I      9.561763   -0.008453    9.559688    ( 0.0000,  0.0000,  0.0000)
  29 Cs     6.648848    6.605867    0.053485    ( 0.0000,  0.0000,  0.0000)
  30 Pb     9.688202    9.585010    3.221762    ( 0.0000,  0.0000,  0.0000)
  31 I      9.618334    9.584988    0.002474    ( 0.0000,  0.0000,  0.0000)
  32 I      6.493592    9.584996    3.221268    ( 0.0000,  0.0000,  0.0000)
  33 I      9.754843    6.375156    3.102599    ( 0.0000,  0.0000,  0.0000)
  34 Cs     6.395683    6.318930    6.390277    ( 0.0000,  0.0000,  0.0000)
  35 Pb     9.566086    9.585011    9.569223    ( 0.0000,  0.0000,  0.0000)
  36 I      9.700610    9.585034    6.396189    ( 0.0000,  0.0000,  0.0000)
  37 I      6.392447    9.584986    9.652710    ( 0.0000,  0.0000,  0.0000)
  38 I      9.561783    6.398468    9.559636    ( 0.0000,  0.0000,  0.0000)

Unit cell:
           periodic     x           y           z      points  spacing
  1. axis:    yes   12.780000    0.000000    0.000000    75     0.1704
  2. axis:    yes    0.000000   12.780000    0.000000    75     0.1704
  3. axis:    yes    0.000000    0.000000   12.780000    75     0.1704

  Lengths:  12.780000  12.780000  12.780000
  Angles:   90.000000  90.000000  90.000000

Effective grid spacing dv^(1/3) = 0.1704

     iter     time        total  log10-change:
                         energy   eigst   dens
iter:   1 02:25:53  -113.677509   -5.67
iter:   2 02:26:46  -113.677502   -7.00  -4.07c
iter:   3 02:27:38  -113.677484c  -6.73  -4.12c
iter:   4 02:28:30  -113.677483c  -8.26c -4.53c

Converged after 4 iterations.

Dipole moment: (12.650899, 70.034256, 14.427156) |e|*Ang

Energy contributions relative to reference atoms: (reference = -10684034.619125)

Kinetic:       +163.958105
Potential:     -183.110368
External:        +0.000000
XC:             -93.546079
Entropy (-ST):   -0.000155
Local:           -0.979063
SIC:             +0.000000
--------------------------
Free energy:   -113.677560
Extrapolated:  -113.677483

Showing only first 2 kpts
 Kpt  Band  Eigenvalues  Occupancy
  0   170      1.03468    1.99999
  0   171      1.13437    1.99998
  0   172      3.30451    0.00007
  0   173      3.88312    0.00000

  1   170      1.06657    1.99999
  1   171      1.12284    1.99998
  1   172      3.34814    0.00005
  1   173      3.81195    0.00000


Fermi level: 2.28458

Gap: 2.170 eV
Transition (v -> c):
  (s=0, k=0, n=171, [0.25, -0.25, -0.25]) -> (s=0, k=2, n=172, [0.25, 0.25, -0.25])
Direct/indirect transitions are different
Direct gap: 2.170 eV
Transition at: (s=0, k=2, n=171, [0.25, 0.25, -0.25])

Forces in eV/Ang:
  0 Cs   -0.01995   -0.06627   -0.01492
  1 Pb   -0.03507   -0.00002   -0.02182
  2 I     0.09512    0.00000    0.10516
  3 I    -0.01472   -0.02494   -0.01767
  4 Cs   -0.00743   -0.03699    0.02723
  5 Pb    0.01675   -0.00004   -0.10694
  6 I    -0.03418   -0.00008   -0.00940
  7 I    -0.01977    0.00000    0.02981
  8 I    -0.00416    0.02542    0.04200
  9 Cs   -0.01996    0.06629   -0.01493
 10 Pb   -0.00714    0.00004   -0.00756
 11 I    -0.00554   -0.00004    0.00555
 12 I     0.00587    0.00001   -0.01456
 13 I    -0.01475    0.02495   -0.01761
 14 Cs   -0.00742    0.03701    0.02722
 15 Pb   -0.00354    0.00005   -0.00988
 16 I     0.00564    0.00003    0.00834
 17 I     0.00388    0.00001   -0.00432
 18 I    -0.00417   -0.02541    0.04194
 19 Cs    0.02937   -0.03337   -0.00783
 20 Pb   -0.11804   -0.00003    0.00712
 21 I     0.04164    0.00000   -0.01367
 22 I    -0.00433    0.00001   -0.05169
 23 I     0.04170    0.02947   -0.00228
 24 Cs    0.01607   -0.01884    0.01454
 25 Pb   -0.01049   -0.00004   -0.01171
 26 I     0.03147   -0.00000   -0.01456
 27 I    -0.02021    0.00000    0.03626
 28 I    -0.00138    0.03656   -0.00115
 29 Cs    0.02939    0.03337   -0.00783
 30 Pb   -0.01018    0.00004   -0.00419
 31 I    -0.00652    0.00000    0.00369
 32 I     0.00712   -0.00001    0.01090
 33 I     0.04171   -0.02946   -0.00227
 34 Cs    0.01609    0.01883    0.01456
 35 Pb    0.00107    0.00003    0.00151
 36 I     0.00036    0.00000   -0.00612
 37 I    -0.00681   -0.00000   -0.00624
 38 I    -0.00137   -0.03655   -0.00116

System changes: positions 

Initializing position-dependent things.

Density initialized from wave functions
         .-----------------------------Cs  
        /|                              |  
       / |                              |  
      /  |                              |  
     /   |                          Cs  |  
    /    |                              |  
   /   I |     Pb     I   I   Pb        |  
  /      |                              |  
 *       Cs I               I           |  
 |       |                              |  
 |       |Pb   I  I       Pb   I  I     |  
 |   Cs  |                              |  
 |       I           Cs I               |  
 |       |                              |  
 |     I |I    Pb      I  I   Pb        |  
 |       |                              |  
 |       .---I---Cs------Cs--I----------.  
 |      /                              /   
 |     /   Pb  I   I      Pb  I       /    
 |    /                              /     
 |   /I  I           Cs  I          /      
 |  /                              /       
 | /                              /        
 |/                              /         
 *------------------------------*          

Atomic positions and initial magnetic moments

Positions:
   0 Cs    -0.159932   -0.386699   -0.144968    ( 0.0000,  0.0000,  0.0000)
   1 Pb     3.206819    3.194957    3.212607    ( 0.0000,  0.0000,  0.0000)
   2 I      1.144353    3.195066    1.265797    ( 0.0000,  0.0000,  0.0000)
   3 I      3.366706    0.006067    3.363329    ( 0.0000,  0.0000,  0.0000)
   4 Cs     0.050863   -0.291016    6.692766    ( 0.0000,  0.0000,  0.0000)
   5 Pb     3.070125    3.194920    9.410959    ( 0.0000,  0.0000,  0.0000)
   6 I      3.038961    3.194629    6.450922    ( 0.0000,  0.0000,  0.0000)
   7 I     -0.126026    3.194990    9.313199    ( 0.0000,  0.0000,  0.0000)
   8 I      3.081222    0.060858    9.818852    ( 0.0000,  0.0000,  0.0000)
   9 Cs    -0.160005    6.776763   -0.145041    ( 0.0000,  0.0000,  0.0000)
  10 Pb     3.270912    9.585056    3.269643    ( 0.0000,  0.0000,  0.0000)
  11 I      3.265994    9.584644    0.109244    ( 0.0000,  0.0000,  0.0000)
  12 I      0.110098    9.585003    3.216607    ( 0.0000,  0.0000,  0.0000)
  13 I      3.366572    6.383942    3.363974    ( 0.0000,  0.0000,  0.0000)
  14 Cs     0.050928    6.681075    6.692703    ( 0.0000,  0.0000,  0.0000)
  15 Pb     3.205902    9.585095    9.686389    ( 0.0000,  0.0000,  0.0000)
  16 I      3.177424    9.585344    6.500865    ( 0.0000,  0.0000,  0.0000)
  17 I      0.009215    9.585028    9.654761    ( 0.0000,  0.0000,  0.0000)
  18 I      3.081179    6.329187    9.818209    ( 0.0000,  0.0000,  0.0000)
  19 Cs     6.691093   -0.261317    0.043599    ( 0.0000,  0.0000,  0.0000)
  20 Pb     9.418895    3.194957    3.056085    ( 0.0000,  0.0000,  0.0000)
  21 I      9.405750    3.195049   -0.117293    ( 0.0000,  0.0000,  0.0000)
  22 I      6.471574    3.195041    2.936135    ( 0.0000,  0.0000,  0.0000)
  23 I      9.817109    0.065564    3.095806    ( 0.0000,  0.0000,  0.0000)
  24 Cs     6.418118    0.049052    6.410648    ( 0.0000,  0.0000,  0.0000)
  25 Pb     9.471203    3.194939    9.467911    ( 0.0000,  0.0000,  0.0000)
  26 I      9.411800    3.194967    6.238637    ( 0.0000,  0.0000,  0.0000)
  27 I      6.227244    3.195028    9.547312    ( 0.0000,  0.0000,  0.0000)
  28 I      9.563397    0.052419    9.561724    ( 0.0000,  0.0000,  0.0000)
  29 Cs     6.691214    6.651355    0.043585    ( 0.0000,  0.0000,  0.0000)
  30 Pb     9.684133    9.585077    3.206912    ( 0.0000,  0.0000,  0.0000)
  31 I      9.613246    9.584994    0.011606    ( 0.0000,  0.0000,  0.0000)
  32 I      6.498425    9.584991    3.233316    ( 0.0000,  0.0000,  0.0000)
  33 I      9.817089    6.324466    3.095866    ( 0.0000,  0.0000,  0.0000)
  34 Cs     6.418163    6.340929    6.410745    ( 0.0000,  0.0000,  0.0000)
  35 Pb     9.575808    9.585068    9.580348    ( 0.0000,  0.0000,  0.0000)
  36 I      9.703983    9.585044    6.383560    ( 0.0000,  0.0000,  0.0000)
  37 I      6.378558    9.584989    9.647084    ( 0.0000,  0.0000,  0.0000)
  38 I      9.563424    6.337596    9.561661    ( 0.0000,  0.0000,  0.0000)

Unit cell:
           periodic     x           y           z      points  spacing
  1. axis:    yes   12.780000    0.000000    0.000000    75     0.1704
  2. axis:    yes    0.000000   12.780000    0.000000    75     0.1704
  3. axis:    yes    0.000000    0.000000   12.780000    75     0.1704

  Lengths:  12.780000  12.780000  12.780000
  Angles:   90.000000  90.000000  90.000000

Effective grid spacing dv^(1/3) = 0.1704

     iter     time        total  log10-change:
                         energy   eigst   dens
iter:   1 02:29:44  -113.768356   -1.82
iter:   2 02:30:36  -113.716052   -3.10  -2.18
iter:   3 02:31:28  -113.568123   -2.79  -2.23
iter:   4 02:32:21  -113.561786c  -4.35  -2.60
iter:   5 02:33:14  -113.558298c  -4.37  -2.68
iter:   6 02:34:09  -113.556664c  -4.26  -2.85
iter:   7 02:35:01  -113.555416c  -4.98  -2.99
iter:   8 02:35:53  -113.555477c  -5.68  -3.42
iter:   9 02:36:45  -113.555375c  -6.18  -3.51
iter:  10 02:37:37  -113.555419c  -6.05  -3.68
iter:  11 02:38:29  -113.555412c  -6.92  -3.88
iter:  12 02:39:21  -113.555403c  -7.57c -3.87
iter:  13 02:40:13  -113.555394c  -7.92c -3.88
iter:  14 02:41:05  -113.555399c  -7.08  -3.95
iter:  15 02:41:57  -113.555395c  -7.46c -4.10c

Converged after 15 iterations.

Dipole moment: (23.948870, 65.170415, 23.420770) |e|*Ang

Energy contributions relative to reference atoms: (reference = -10684034.619125)

Kinetic:       +174.916900
Potential:     -192.359121
External:        +0.000000
XC:             -95.132208
Entropy (-ST):   -0.000096
Local:           -0.980919
SIC:             +0.000000
--------------------------
Free energy:   -113.555443
Extrapolated:  -113.555395

Showing only first 2 kpts
 Kpt  Band  Eigenvalues  Occupancy
  0   170      1.09512    1.99999
  0   171      1.21333    1.99998
  0   172      3.46795    0.00004
  0   173      3.94734    0.00000

  1   170      1.07338    2.00000
  1   171      1.23274    1.99998
  1   172      3.47965    0.00003
  1   173      3.93831    0.00000


Fermi level: 2.38208

Gap: 2.235 eV
Transition (v -> c):
  (s=0, k=3, n=171, [0.25, 0.25, 0.25]) -> (s=0, k=2, n=172, [0.25, 0.25, -0.25])
Direct/indirect transitions are different
Direct gap: 2.247 eV
Transition at: (s=0, k=3, n=171, [0.25, 0.25, 0.25])

Forces in eV/Ang:
  0 Cs    0.02392    0.05030    0.02820
  1 Pb    0.60492    0.00019    0.53355
  2 I    -0.67492    0.00004   -0.62792
  3 I     0.01551    0.06739    0.01314
  4 Cs   -0.00438    0.01650   -0.00199
  5 Pb   -0.04520    0.00033    0.33065
  6 I    -0.01830   -0.00014   -0.29572
  7 I    -0.01404   -0.00002    0.02538
  8 I    -0.00259   -0.19416    0.02278
  9 Cs    0.02393   -0.05033    0.02819
 10 Pb    0.03569   -0.00021    0.03429
 11 I    -0.00053   -0.00002   -0.06165
 12 I    -0.06892    0.00003   -0.01028
 13 I     0.01547   -0.06743    0.01324
 14 Cs   -0.00435   -0.01649   -0.00200
 15 Pb    0.07359   -0.00018   -0.00861
 16 I     0.00144    0.00006    0.03122
 17 I    -0.07654    0.00003   -0.00457
 18 I    -0.00260    0.19407    0.02265
 19 Cs   -0.00381    0.01703   -0.00385
 20 Pb    0.36456    0.00029   -0.00056
 21 I     0.04611   -0.00002   -0.04595
 22 I    -0.37634    0.00001   -0.04322
 23 I     0.02404   -0.22851   -0.00029
 24 Cs    0.00830   -0.00807    0.00490
 25 Pb    0.00072    0.00032   -0.00495
 26 I    -0.03437   -0.00003    0.06264
 27 I     0.06830   -0.00002   -0.01595
 28 I    -0.00988   -0.31901   -0.00550
 29 Cs   -0.00379   -0.01704   -0.00385
 30 Pb   -0.01148   -0.00017    0.08004
 31 I    -0.00811    0.00003   -0.06986
 32 I     0.04252    0.00002    0.00674
 33 I     0.02402    0.22843   -0.00029
 34 Cs    0.00831    0.00807    0.00492
 35 Pb   -0.08802   -0.00018   -0.09466
 36 I    -0.00401    0.00003    0.07226
 37 I     0.08084    0.00002   -0.00857
 38 I    -0.00989    0.31892   -0.00552

System changes: positions 

Initializing position-dependent things.

Density initialized from wave functions
         .-----------------------------Cs  
        /|                              |  
       / |                              |  
      /  |                              |  
     /   |                          Cs  |  
    /    |                              |  
   /   I |     Pb     I   I   Pb        |  
  /      |                              |  
 *       Cs I               I           |  
 |       |                              |  
 |       |Pb   I  I       Pb   I  I     |  
 |   Cs  |                              |  
 |       I          Cs  I               |  
 |       |                              |  
 |     I |I    Pb      I  I   Pb        |  
 |       |                              |  
 |       .---I---Cs------Cs--I----------.  
 |      /                              /   
 |     /   Pb  I   I      Pb  I       /    
 |    /                              /     
 |   /   I           Cs  I          /      
 |  / I                            /       
 | /                              /        
 |/                              /         
 *------------------------------*          

Atomic positions and initial magnetic moments

Positions:
   0 Cs    -0.139401   -0.315204   -0.129843    ( 0.0000,  0.0000,  0.0000)
   1 Pb     3.244786    3.194989    3.236445    ( 0.0000,  0.0000,  0.0000)
   2 I      1.042288    3.195067    1.153317    ( 0.0000,  0.0000,  0.0000)
   3 I      3.386749    0.026211    3.386446    ( 0.0000,  0.0000,  0.0000)
   4 Cs     0.057716   -0.253264    6.663845    ( 0.0000,  0.0000,  0.0000)
   5 Pb     3.059564    3.194977    9.521744    ( 0.0000,  0.0000,  0.0000)
   6 I      3.076013    3.194716    6.463369    ( 0.0000,  0.0000,  0.0000)
   7 I     -0.108975    3.194992    9.277954    ( 0.0000,  0.0000,  0.0000)
   8 I      3.087882    0.027276    9.772365    ( 0.0000,  0.0000,  0.0000)
   9 Cs    -0.139465    6.705245   -0.129901    ( 0.0000,  0.0000,  0.0000)
  10 Pb     3.283683    9.585006    3.282912    ( 0.0000,  0.0000,  0.0000)
  11 I      3.274476    9.584688    0.101317    ( 0.0000,  0.0000,  0.0000)
  12 I      0.101543    9.584996    3.234383    ( 0.0000,  0.0000,  0.0000)
  13 I      3.386645    6.363788    3.387032    ( 0.0000,  0.0000,  0.0000)
  14 Cs     0.057767    6.643308    6.663800    ( 0.0000,  0.0000,  0.0000)
  15 Pb     3.216017    9.585033    9.688847    ( 0.0000,  0.0000,  0.0000)
  16 I      3.173659    9.585307    6.495854    ( 0.0000,  0.0000,  0.0000)
  17 I      0.001708    9.585020    9.656137    ( 0.0000,  0.0000,  0.0000)
  18 I      3.087847    6.362751    9.771777    ( 0.0000,  0.0000,  0.0000)
  19 Cs     6.659595   -0.227435    0.050949    ( 0.0000,  0.0000,  0.0000)
  20 Pb     9.540918    3.194998    3.055571    ( 0.0000,  0.0000,  0.0000)
  21 I      9.358852    3.195049   -0.106745    ( 0.0000,  0.0000,  0.0000)
  22 I      6.478976    3.195030    2.991730    ( 0.0000,  0.0000,  0.0000)
  23 I      9.770917    0.027093    3.100813    ( 0.0000,  0.0000,  0.0000)
  24 Cs     6.401445    0.065404    6.395466    ( 0.0000,  0.0000,  0.0000)
  25 Pb     9.480989    3.194988    9.477397    ( 0.0000,  0.0000,  0.0000)
  26 I      9.375268    3.194971    6.255609    ( 0.0000,  0.0000,  0.0000)
  27 I      6.249570    3.195026    9.506378    ( 0.0000,  0.0000,  0.0000)
  28 I      9.562155    0.006074    9.560198    ( 0.0000,  0.0000,  0.0000)
  29 Cs     6.659695    6.617464    0.050937    ( 0.0000,  0.0000,  0.0000)
  30 Pb     9.687140    9.585027    3.218213    ( 0.0000,  0.0000,  0.0000)
  31 I      9.617010    9.584990    0.004583    ( 0.0000,  0.0000,  0.0000)
  32 I      6.494966    9.584995    3.224373    ( 0.0000,  0.0000,  0.0000)
  33 I      9.770885    6.362929    3.100865    ( 0.0000,  0.0000,  0.0000)
  34 Cs     6.401473    6.324587    6.395539    ( 0.0000,  0.0000,  0.0000)
  35 Pb     9.568292    9.585025    9.571768    ( 0.0000,  0.0000,  0.0000)
  36 I      9.701466    9.585037    6.393192    ( 0.0000,  0.0000,  0.0000)
  37 I      6.389156    9.584987    9.651245    ( 0.0000,  0.0000,  0.0000)
  38 I      9.562177    6.383940    9.560143    ( 0.0000,  0.0000,  0.0000)

Unit cell:
           periodic     x           y           z      points  spacing
  1. axis:    yes   12.780000    0.000000    0.000000    75     0.1704
  2. axis:    yes    0.000000   12.780000    0.000000    75     0.1704
  3. axis:    yes    0.000000    0.000000   12.780000    75     0.1704

  Lengths:  12.780000  12.780000  12.780000
  Angles:   90.000000  90.000000  90.000000

Effective grid spacing dv^(1/3) = 0.1704

     iter     time        total  log10-change:
                         energy   eigst   dens
iter:   1 02:43:11  -113.876929   -1.97
iter:   2 02:44:04  -113.832825   -3.26  -2.24
iter:   3 02:44:57  -113.707984c  -2.92  -2.29
iter:   4 02:45:53  -113.702853c  -4.53  -2.65
iter:   5 02:46:45  -113.700417c  -4.52  -2.74
iter:   6 02:47:38  -113.697792c  -4.47  -2.94
iter:   7 02:48:31  -113.697208c  -5.08  -3.09
iter:   8 02:49:23  -113.697234c  -5.94  -3.50
iter:   9 02:50:17  -113.697176c  -6.24  -3.58
iter:  10 02:51:09  -113.697181c  -6.56  -3.75
iter:  11 02:52:01  -113.697180c  -7.17  -3.94
iter:  12 02:52:54  -113.697183c  -7.54c -4.01c

Converged after 12 iterations.

Dipole moment: (15.716798, 69.645776, 16.873469) |e|*Ang

Energy contributions relative to reference atoms: (reference = -10684034.619125)

Kinetic:       +165.788949
Potential:     -184.737905
External:        +0.000000
XC:             -93.857865
Entropy (-ST):   -0.000131
Local:           -0.890296
SIC:             +0.000000
--------------------------
Free energy:   -113.697248
Extrapolated:  -113.697183

Showing only first 2 kpts
 Kpt  Band  Eigenvalues  Occupancy
  0   170      1.03793    1.99999
  0   171      1.14440    1.99998
  0   172      3.34799    0.00006
  0   173      3.91802    0.00000

  1   170      1.06415    1.99999
  1   171      1.13910    1.99998
  1   172      3.38232    0.00004
  1   173      3.87537    0.00000


Fermi level: 2.30629

Gap: 2.204 eV
Transition (v -> c):
  (s=0, k=0, n=171, [0.25, -0.25, -0.25]) -> (s=0, k=2, n=172, [0.25, 0.25, -0.25])
Direct/indirect transitions are different
Direct gap: 2.204 eV
Transition at: (s=0, k=2, n=171, [0.25, 0.25, -0.25])

Forces in eV/Ang:
  0 Cs   -0.00566   -0.02717   -0.00026
  1 Pb    0.06978    0.00003    0.06460
  2 I    -0.03937    0.00001   -0.02516
  3 I    -0.00877    0.00765   -0.01140
  4 Cs   -0.00710   -0.01808    0.01825
  5 Pb   -0.00540    0.00003   -0.01759
  6 I    -0.03272   -0.00009   -0.06019
  7 I    -0.01266   -0.00001    0.02807
  8 I    -0.00305   -0.02338    0.03686
  9 Cs   -0.00566    0.02718   -0.00027
 10 Pb   -0.00195   -0.00001   -0.00174
 11 I    -0.00407   -0.00004   -0.00783
 12 I    -0.00890    0.00001   -0.01245
 13 I    -0.00880   -0.00765   -0.01134
 14 Cs   -0.00709    0.01809    0.01823
 15 Pb    0.01466   -0.00000   -0.00260
 16 I     0.00181    0.00004    0.00982
 17 I    -0.01217    0.00001   -0.00513
 18 I    -0.00306    0.02338    0.03680
 19 Cs    0.01990   -0.01519   -0.00715
 20 Pb   -0.02259    0.00003    0.00000
 21 I     0.04178   -0.00000   -0.01721
 22 I    -0.06963    0.00001   -0.05013
 23 I     0.03685   -0.02854   -0.00119
 24 Cs    0.01708   -0.01294    0.01486
 25 Pb   -0.01489    0.00003   -0.01381
 26 I     0.01983   -0.00001    0.00355
 27 I     0.00215   -0.00000    0.02704
 28 I    -0.00353   -0.04441   -0.00249
 29 Cs    0.01992    0.01519   -0.00715
 30 Pb   -0.00376   -0.00001    0.01503
 31 I    -0.00748    0.00001   -0.01074
 32 I     0.01193    0.00000    0.00696
 33 I     0.03685    0.02854   -0.00119
 34 Cs    0.01709    0.01293    0.01488
 35 Pb   -0.02148   -0.00002   -0.02239
 36 I     0.00060    0.00001    0.01069
 37 I     0.01204    0.00001   -0.00537
 38 I    -0.00353    0.04441   -0.00250

System changes: positions 

Initializing position-dependent things.

Density initialized from wave functions
         .-----------------------------Cs  
        /|                              |  
       / |                              |  
      /  |                              |  
     /   |                          Cs  |  
    /    |                              |  
   /   I |     Pb     I   I   Pb        |  
  /      |                              |  
 *       Cs I               I           |  
 |       |                              |  
 |       |Pb   I  I       Pb   I  I     |  
 |   Cs  |                              |  
 |       I          Cs  I               |  
 |       |                              |  
 |     I |I    Pb      I  I   Pb        |  
 |       |                              |  
 |       .---I---Cs------Cs--I----------.  
 |      /                              /   
 |     /   Pb  I   I      Pb  I       /    
 |    /                              /     
 |   /   I           Cs  I          /      
 |  / I                            /       
 | /                              /        
 |/                              /         
 *------------------------------*          

Atomic positions and initial magnetic moments

Positions:
   0 Cs    -0.140508   -0.319204   -0.130597    ( 0.0000,  0.0000,  0.0000)
   1 Pb     3.244207    3.194987    3.236469    ( 0.0000,  0.0000,  0.0000)
   2 I      1.046515    3.195067    1.158302    ( 0.0000,  0.0000,  0.0000)
   3 I      3.385589    0.025368    3.385092    ( 0.0000,  0.0000,  0.0000)
   4 Cs     0.057272   -0.255422    6.665573    ( 0.0000,  0.0000,  0.0000)
   5 Pb     3.059958    3.194974    9.516079    ( 0.0000,  0.0000,  0.0000)
   6 I      3.073654    3.194711    6.461693    ( 0.0000,  0.0000,  0.0000)
   7 I     -0.110007    3.194992    9.280179    ( 0.0000,  0.0000,  0.0000)
   8 I      3.087485    0.028580    9.775273    ( 0.0000,  0.0000,  0.0000)
   9 Cs    -0.140573    6.709247   -0.130655    ( 0.0000,  0.0000,  0.0000)
  10 Pb     3.282997    9.585009    3.282203    ( 0.0000,  0.0000,  0.0000)
  11 I      3.273971    9.584685    0.101585    ( 0.0000,  0.0000,  0.0000)
  12 I      0.101825    9.584996    3.233283    ( 0.0000,  0.0000,  0.0000)
  13 I      3.385483    6.364630    3.385681    ( 0.0000,  0.0000,  0.0000)
  14 Cs     0.057323    6.645466    6.665526    ( 0.0000,  0.0000,  0.0000)
  15 Pb     3.215713    9.585036    9.688726    ( 0.0000,  0.0000,  0.0000)
  16 I      3.173865    9.585309    6.496244    ( 0.0000,  0.0000,  0.0000)
  17 I      0.001892    9.585021    9.656012    ( 0.0000,  0.0000,  0.0000)
  18 I      3.087450    6.361448    9.774682    ( 0.0000,  0.0000,  0.0000)
  19 Cs     6.661477   -0.229355    0.050478    ( 0.0000,  0.0000,  0.0000)
  20 Pb     9.534636    3.194997    3.055556    ( 0.0000,  0.0000,  0.0000)
  21 I      9.361869    3.195049   -0.107528    ( 0.0000,  0.0000,  0.0000)
  22 I      6.477372    3.195031    2.988167    ( 0.0000,  0.0000,  0.0000)
  23 I      9.773811    0.028556    3.100525    ( 0.0000,  0.0000,  0.0000)
  24 Cs     6.402535    0.064407    6.396448    ( 0.0000,  0.0000,  0.0000)
  25 Pb     9.480293    3.194986    9.476737    ( 0.0000,  0.0000,  0.0000)
  26 I      9.377402    3.194971    6.254824    ( 0.0000,  0.0000,  0.0000)
  27 I      6.248499    3.195026    9.508845    ( 0.0000,  0.0000,  0.0000)
  28 I      9.562179    0.007663    9.560254    ( 0.0000,  0.0000,  0.0000)
  29 Cs     6.661578    6.619385    0.050466    ( 0.0000,  0.0000,  0.0000)
  30 Pb     9.686972    9.585029    3.217855    ( 0.0000,  0.0000,  0.0000)
  31 I      9.616728    9.584990    0.004766    ( 0.0000,  0.0000,  0.0000)
  32 I      6.495312    9.584994    3.224915    ( 0.0000,  0.0000,  0.0000)
  33 I      9.773780    6.361467    3.100578    ( 0.0000,  0.0000,  0.0000)
  34 Cs     6.402563    6.325584    6.396522    ( 0.0000,  0.0000,  0.0000)
  35 Pb     9.568359    9.585027    9.571876    ( 0.0000,  0.0000,  0.0000)
  36 I      9.701612    9.585037    6.392877    ( 0.0000,  0.0000,  0.0000)
  37 I      6.388814    9.584987    9.650967    ( 0.0000,  0.0000,  0.0000)
  38 I      9.562201    6.382352    9.560199    ( 0.0000,  0.0000,  0.0000)

Unit cell:
           periodic     x           y           z      points  spacing
  1. axis:    yes   12.780000    0.000000    0.000000    75     0.1704
  2. axis:    yes    0.000000   12.780000    0.000000    75     0.1704
  3. axis:    yes    0.000000    0.000000   12.780000    75     0.1704

  Lengths:  12.780000  12.780000  12.780000
  Angles:   90.000000  90.000000  90.000000

Effective grid spacing dv^(1/3) = 0.1704

     iter     time        total  log10-change:
                         energy   eigst   dens
iter:   1 02:54:06  -113.698708   -4.67
iter:   2 02:54:59  -113.698675   -5.96  -3.74
iter:   3 02:55:51  -113.698554c  -5.88  -3.78
iter:   4 02:56:44  -113.698548c  -7.30  -4.10c
iter:   5 02:57:37  -113.698544c  -7.65c -4.18c

Converged after 5 iterations.

Dipole moment: (16.239922, 69.718570, 17.298705) |e|*Ang

Energy contributions relative to reference atoms: (reference = -10684034.619125)

Kinetic:       +166.302647
Potential:     -185.089834
External:        +0.000000
XC:             -93.908634
Entropy (-ST):   -0.000129
Local:           -1.002659
SIC:             +0.000000
--------------------------
Free energy:   -113.698609
Extrapolated:  -113.698544

Showing only first 2 kpts
 Kpt  Band  Eigenvalues  Occupancy
  0   170      1.03849    1.99999
  0   171      1.14642    1.99998
  0   172      3.35382    0.00006
  0   173      3.92095    0.00000

  1   170      1.06371    1.99999
  1   171      1.14243    1.99998
  1   172      3.38716    0.00004
  1   173      3.88129    0.00000


Fermi level: 2.30938

Gap: 2.207 eV
Transition (v -> c):
  (s=0, k=0, n=171, [0.25, -0.25, -0.25]) -> (s=0, k=2, n=172, [0.25, 0.25, -0.25])
Direct/indirect transitions are different
Direct gap: 2.207 eV
Transition at: (s=0, k=2, n=171, [0.25, 0.25, -0.25])

Forces in eV/Ang:
  0 Cs   -0.00693   -0.03001   -0.00205
  1 Pb    0.04330    0.00005    0.04048
  2 I    -0.03049    0.00001   -0.01559
  3 I    -0.00467   -0.00889   -0.00759
  4 Cs   -0.00693   -0.02459    0.02058
  5 Pb    0.00141    0.00006   -0.00172
  6 I    -0.02997   -0.00009   -0.05420
  7 I    -0.02309   -0.00000    0.02932
  8 I    -0.00432   -0.03663    0.03659
  9 Cs   -0.00693    0.03001   -0.00206
 10 Pb    0.00382   -0.00003    0.00339
 11 I    -0.00389   -0.00004   -0.01097
 12 I    -0.01243    0.00001   -0.01361
 13 I    -0.00470    0.00887   -0.00751
 14 Cs   -0.00691    0.02461    0.02057
 15 Pb    0.01411   -0.00003   -0.01267
 16 I     0.00437    0.00004    0.01600
 17 I    -0.01821    0.00001   -0.00515
 18 I    -0.00433    0.03663    0.03652
 19 Cs    0.02129   -0.02184   -0.00708
 20 Pb   -0.00735    0.00006    0.00549
 21 I     0.04392   -0.00000   -0.02785
 22 I    -0.06339    0.00001   -0.04848
 23 I     0.03648   -0.04302   -0.00196
 24 Cs    0.01324   -0.01924    0.01120
 25 Pb   -0.00090    0.00005   -0.00472
 26 I     0.01301   -0.00001    0.00590
 27 I     0.00199    0.00000    0.02205
 28 I    -0.00393   -0.05795   -0.00266
 29 Cs    0.02131    0.02184   -0.00709
 30 Pb   -0.01347   -0.00003    0.01563
 31 I    -0.00769    0.00001   -0.01670
 32 I     0.01803   -0.00000    0.01028
 33 I     0.03648    0.04302   -0.00196
 34 Cs    0.01325    0.01924    0.01122
 35 Pb   -0.02119   -0.00004   -0.02292
 36 I    -0.00040    0.00001    0.01651
 37 I     0.01813    0.00001   -0.00712
 38 I    -0.00392    0.05796   -0.00267

System changes: positions 

Initializing position-dependent things.

Density initialized from wave functions
         .-----------------------------Cs  
        /|                              |  
       / |                              |  
      /  |                              |  
     /   |                          Cs  |  
    /    |                              |  
   /   I |     Pb     I   I   Pb        |  
  /      |                              |  
 *       Cs I               I           |  
 |       |                              |  
 |       |Pb   I  I       Pb   I  I     |  
 |   Cs  |                              |  
 |       I           Cs I               |  
 |       |                              |  
 |     I |I    Pb      I  I   Pb        |  
 |       |                              |  
 |       .---I---Cs------Cs--I----------.  
 |      /                              /   
 |     /   Pb  I   I      Pb  I       /    
 |    /                              /     
 |   /I  I           Cs  I          /      
 |  /                              /       
 | /                              /        
 |/                              /         
 *------------------------------*          

Atomic positions and initial magnetic moments

Positions:
   0 Cs    -0.152515   -0.363262   -0.138753    ( 0.0000,  0.0000,  0.0000)
   1 Pb     3.236083    3.194976    3.234997    ( 0.0000,  0.0000,  0.0000)
   2 I      1.092025    3.195068    1.212300    ( 0.0000,  0.0000,  0.0000)
   3 I      3.372578    0.015661    3.369912    ( 0.0000,  0.0000,  0.0000)
   4 Cs     0.052604   -0.279478    6.684791    ( 0.0000,  0.0000,  0.0000)
   5 Pb     3.063393    3.194951    9.457945    ( 0.0000,  0.0000,  0.0000)
   6 I      3.047875    3.194645    6.442561    ( 0.0000,  0.0000,  0.0000)
   7 I     -0.121907    3.194989    9.305581    ( 0.0000,  0.0000,  0.0000)
   8 I      3.082502    0.041574    9.807612    ( 0.0000,  0.0000,  0.0000)
   9 Cs    -0.152585    6.753318   -0.138822    ( 0.0000,  0.0000,  0.0000)
  10 Pb     3.275285    9.585033    3.274141    ( 0.0000,  0.0000,  0.0000)
  11 I      3.267932    9.584656    0.104272    ( 0.0000,  0.0000,  0.0000)
  12 I      0.104646    9.585003    3.220563    ( 0.0000,  0.0000,  0.0000)
  13 I      3.372450    6.374342    3.370546    ( 0.0000,  0.0000,  0.0000)
  14 Cs     0.052666    6.669534    6.684732    ( 0.0000,  0.0000,  0.0000)
  15 Pb     3.211354    9.585068    9.687749    ( 0.0000,  0.0000,  0.0000)
  16 I      3.175969    9.585337    6.500651    ( 0.0000,  0.0000,  0.0000)
  17 I      0.003488    9.585029    9.655259    ( 0.0000,  0.0000,  0.0000)
  18 I      3.082461    6.348462    9.806977    ( 0.0000,  0.0000,  0.0000)
  19 Cs     6.682328   -0.250815    0.045499    ( 0.0000,  0.0000,  0.0000)
  20 Pb     9.469838    3.194982    3.054609    ( 0.0000,  0.0000,  0.0000)
  21 I      9.395991    3.195048   -0.116898    ( 0.0000,  0.0000,  0.0000)
  22 I      6.458724    3.195038    2.948970    ( 0.0000,  0.0000,  0.0000)
  23 I      9.805988    0.043094    3.096750    ( 0.0000,  0.0000,  0.0000)
  24 Cs     6.413972    0.053372    6.406731    ( 0.0000,  0.0000,  0.0000)
  25 Pb     9.474721    3.194966    9.471242    ( 0.0000,  0.0000,  0.0000)
  26 I      9.400427    3.194966    6.246507    ( 0.0000,  0.0000,  0.0000)
  27 I      6.236895    3.195026    9.535695    ( 0.0000,  0.0000,  0.0000)
  28 I      9.562893    0.023367    9.561376    ( 0.0000,  0.0000,  0.0000)
  29 Cs     6.682445    6.640850    0.045484    ( 0.0000,  0.0000,  0.0000)
  30 Pb     9.685462    9.585054    3.212980    ( 0.0000,  0.0000,  0.0000)
  31 I      9.614201    9.584995    0.006321    ( 0.0000,  0.0000,  0.0000)
  32 I      6.499229    9.584993    3.230755    ( 0.0000,  0.0000,  0.0000)
  33 I      9.805964    6.346932    3.096808    ( 0.0000,  0.0000,  0.0000)
  34 Cs     6.414012    6.336612    6.406823    ( 0.0000,  0.0000,  0.0000)
  35 Pb     9.570008    9.585047    9.573956    ( 0.0000,  0.0000,  0.0000)
  36 I      9.703522    9.585044    6.389875    ( 0.0000,  0.0000,  0.0000)
  37 I      6.385548    9.584990    9.648170    ( 0.0000,  0.0000,  0.0000)
  38 I      9.562918    6.366648    9.561314    ( 0.0000,  0.0000,  0.0000)

Unit cell:
           periodic     x           y           z      points  spacing
  1. axis:    yes   12.780000    0.000000    0.000000    75     0.1704
  2. axis:    yes    0.000000   12.780000    0.000000    75     0.1704
  3. axis:    yes    0.000000    0.000000   12.780000    75     0.1704

  Lengths:  12.780000  12.780000  12.780000
  Angles:   90.000000  90.000000  90.000000

Effective grid spacing dv^(1/3) = 0.1704

     iter     time        total  log10-change:
                         energy   eigst   dens
iter:   1 02:58:50  -113.708573   -2.61
iter:   2 02:59:42  -113.702024   -3.91  -2.61
iter:   3 03:00:34  -113.683804c  -3.65  -2.66
iter:   4 03:01:27  -113.682553c  -5.21  -3.01
iter:   5 03:02:20  -113.682165c  -5.22  -3.12
iter:   6 03:03:12  -113.682011c  -5.22  -3.30
iter:   7 03:04:04  -113.681881c  -5.73  -3.43
iter:   8 03:04:56  -113.681883c  -6.81  -3.90
iter:   9 03:05:48  -113.681869c  -7.05  -3.94
iter:  10 03:06:40  -113.681870c  -7.25  -4.15c
iter:  11 03:07:33  -113.681869c  -8.26c -4.33c

Converged after 11 iterations.

Dipole moment: (21.859932, 70.427262, 21.928670) |e|*Ang

Energy contributions relative to reference atoms: (reference = -10684034.619125)

Kinetic:       +169.992476
Potential:     -188.244654
External:        +0.000000
XC:             -94.445775
Entropy (-ST):   -0.000102
Local:           -0.983866
SIC:             +0.000000
--------------------------
Free energy:   -113.681920
Extrapolated:  -113.681869

Showing only first 2 kpts
 Kpt  Band  Eigenvalues  Occupancy
  0   170      1.05805    2.00000
  0   171      1.17772    1.99998
  0   172      3.42313    0.00004
  0   173      3.93967    0.00000

  1   170      1.06172    1.99999
  1   171      1.18770    1.99998
  1   172      3.44629    0.00003
  1   173      3.91929    0.00000


Fermi level: 2.34954

Gap: 2.235 eV
Transition (v -> c):
  (s=0, k=3, n=171, [0.25, 0.25, 0.25]) -> (s=0, k=2, n=172, [0.25, 0.25, -0.25])
Direct/indirect transitions are different
Direct gap: 2.245 eV
Transition at: (s=0, k=2, n=171, [0.25, 0.25, -0.25])

Forces in eV/Ang:
  0 Cs    0.01579    0.02506    0.02036
  1 Pb    0.18022    0.00011    0.14975
  2 I    -0.27275    0.00002   -0.24900
  3 I     0.00489    0.02333    0.00321
  4 Cs   -0.00369   -0.00077    0.00615
  5 Pb   -0.03317    0.00015    0.14328
  6 I    -0.02760   -0.00012   -0.09004
  7 I     0.00046   -0.00002    0.02324
  8 I    -0.00478   -0.09794    0.01988
  9 Cs    0.01580   -0.02507    0.02035
 10 Pb    0.01822   -0.00010    0.01787
 11 I    -0.00434   -0.00002   -0.02889
 12 I    -0.03195    0.00003   -0.01298
 13 I     0.00486   -0.02336    0.00330
 14 Cs   -0.00367    0.00079    0.00614
 15 Pb    0.02924   -0.00009   -0.00128
 16 I    -0.00026    0.00005    0.01143
 17 I    -0.04165    0.00003   -0.00138
 18 I    -0.00479    0.09791    0.01979
 19 Cs    0.00554    0.00068   -0.00363
 20 Pb    0.15112    0.00014   -0.01226
 21 I     0.03945   -0.00001   -0.01491
 22 I    -0.12661    0.00000   -0.04812
 23 I     0.01982   -0.11404   -0.00302
 24 Cs    0.00900   -0.01607    0.00657
 25 Pb    0.00913    0.00014    0.00788
 26 I    -0.01911   -0.00002    0.01923
 27 I     0.02502   -0.00001   -0.00515
 28 I    -0.00443   -0.16733   -0.00200
 29 Cs    0.00556   -0.00068   -0.00363
 30 Pb   -0.00243   -0.00009    0.03345
 31 I    -0.00406    0.00002   -0.03882
 32 I     0.01698    0.00001    0.00504
 33 I     0.01981    0.11402   -0.00302
 34 Cs    0.00901    0.01607    0.00659
 35 Pb   -0.03808   -0.00010   -0.04219
 36 I    -0.00037    0.00002    0.03804
 37 I     0.04188    0.00002   -0.00583
 38 I    -0.00443    0.16731   -0.00201

System changes: positions 

Initializing position-dependent things.

Density initialized from wave functions
         .-----------------------------Cs  
        /|                              |  
       / |                              |  
      /  |                              |  
     /   |                          Cs  |  
    /    |                              |  
   /   I |     Pb     I   I   Pb        |  
  /      |                              |  
 *       Cs I               I           |  
 |       |                              |  
 |       |Pb   I  I       Pb   I  I     |  
 |   Cs  |                              |  
 |       I           Cs I               |  
 |       |                              |  
 |     I |I    Pb      I  I   Pb        |  
 |       |                              |  
 |       .---I---Cs------Cs--I----------.  
 |      /                              /   
 |     /   Pb  I   I      Pb  I       /    
 |    /                              /     
 |   /   I           Cs  I          /      
 |  / I                            /       
 | /                              /        
 |/                              /         
 *------------------------------*          

Atomic positions and initial magnetic moments

Positions:
   0 Cs    -0.143807   -0.331704   -0.132710    ( 0.0000,  0.0000,  0.0000)
   1 Pb     3.244119    3.194986    3.237949    ( 0.0000,  0.0000,  0.0000)
   2 I      1.056830    3.195067    1.171352    ( 0.0000,  0.0000,  0.0000)
   3 I      3.381788    0.023054    3.380631    ( 0.0000,  0.0000,  0.0000)
   4 Cs     0.055863   -0.262379    6.671257    ( 0.0000,  0.0000,  0.0000)
   5 Pb     3.060439    3.194969    9.500938    ( 0.0000,  0.0000,  0.0000)
   6 I      3.065801    3.194690    6.454631    ( 0.0000,  0.0000,  0.0000)
   7 I     -0.113538    3.194991    9.287963    ( 0.0000,  0.0000,  0.0000)
   8 I      3.085949    0.031118    9.785047    ( 0.0000,  0.0000,  0.0000)
   9 Cs    -0.143873    6.721750   -0.132772    ( 0.0000,  0.0000,  0.0000)
  10 Pb     3.280837    9.585015    3.279942    ( 0.0000,  0.0000,  0.0000)
  11 I      3.272135    9.584676    0.102019    ( 0.0000,  0.0000,  0.0000)
  12 I      0.102260    9.584999    3.229396    ( 0.0000,  0.0000,  0.0000)
  13 I      3.381674    6.366945    3.381235    ( 0.0000,  0.0000,  0.0000)
  14 Cs     0.055917    6.652428    6.671207    ( 0.0000,  0.0000,  0.0000)
  15 Pb     3.214795    9.585044    9.688544    ( 0.0000,  0.0000,  0.0000)
  16 I      3.174428    9.585318    6.497675    ( 0.0000,  0.0000,  0.0000)
  17 I      0.001879    9.585023    9.655791    ( 0.0000,  0.0000,  0.0000)
  18 I      3.085911    6.358912    9.784442    ( 0.0000,  0.0000,  0.0000)
  19 Cs     6.667637   -0.235538    0.048980    ( 0.0000,  0.0000,  0.0000)
  20 Pb     9.517618    3.194994    3.055073    ( 0.0000,  0.0000,  0.0000)
  21 I      9.372389    3.195048   -0.110564    ( 0.0000,  0.0000,  0.0000)
  22 I      6.470046    3.195033    2.976173    ( 0.0000,  0.0000,  0.0000)
  23 I      9.783541    0.031313    3.099362    ( 0.0000,  0.0000,  0.0000)
  24 Cs     6.406008    0.061097    6.399553    ( 0.0000,  0.0000,  0.0000)
  25 Pb     9.478704    3.194982    9.475178    ( 0.0000,  0.0000,  0.0000)
  26 I      9.384036    3.194969    6.252747    ( 0.0000,  0.0000,  0.0000)
  27 I      6.245512    3.195026    9.516747    ( 0.0000,  0.0000,  0.0000)
  28 I      9.562357    0.010143    9.560583    ( 0.0000,  0.0000,  0.0000)
  29 Cs     6.667743    6.625569    0.048967    ( 0.0000,  0.0000,  0.0000)
  30 Pb     9.686609    9.585035    3.216823    ( 0.0000,  0.0000,  0.0000)
  31 I      9.615955    9.584992    0.004781    ( 0.0000,  0.0000,  0.0000)
  32 I      6.496678    9.584994    3.226630    ( 0.0000,  0.0000,  0.0000)
  33 I      9.783511    6.358710    3.099417    ( 0.0000,  0.0000,  0.0000)
  34 Cs     6.406040    6.328891    6.399632    ( 0.0000,  0.0000,  0.0000)
  35 Pb     9.568334    9.585031    9.571937    ( 0.0000,  0.0000,  0.0000)
  36 I      9.702205    9.585039    6.392469    ( 0.0000,  0.0000,  0.0000)
  37 I      6.388381    9.584988    9.650123    ( 0.0000,  0.0000,  0.0000)
  38 I      9.562380    6.379871    9.560526    ( 0.0000,  0.0000,  0.0000)

Unit cell:
           periodic     x           y           z      points  spacing
  1. axis:    yes   12.780000    0.000000    0.000000    75     0.1704
  2. axis:    yes    0.000000   12.780000    0.000000    75     0.1704
  3. axis:    yes    0.000000    0.000000   12.780000    75     0.1704

  Lengths:  12.780000  12.780000  12.780000
  Angles:   90.000000  90.000000  90.000000

Effective grid spacing dv^(1/3) = 0.1704

     iter     time        total  log10-change:
                         energy   eigst   dens
iter:   1 03:08:45  -113.719375   -2.84
iter:   2 03:09:38  -113.715057   -4.14  -2.71
iter:   3 03:10:31  -113.703061c  -3.87  -2.76
iter:   4 03:11:23  -113.702353c  -5.43  -3.12
iter:   5 03:12:16  -113.702096c  -5.44  -3.22
iter:   6 03:13:10  -113.701942c  -5.43  -3.41
iter:   7 03:14:01  -113.701870c  -5.94  -3.54
iter:   8 03:14:54  -113.701870c  -6.99  -4.00
iter:   9 03:15:47  -113.701863c  -7.24  -4.05c
iter:  10 03:16:39  -113.701863c  -7.48c -4.25c

Converged after 10 iterations.

Dipole moment: (17.924202, 70.563772, 18.701849) |e|*Ang

Energy contributions relative to reference atoms: (reference = -10684034.619125)

Kinetic:       +166.808161
Potential:     -185.549627
External:        +0.000000
XC:             -94.016854
Entropy (-ST):   -0.000119
Local:           -0.943483
SIC:             +0.000000
--------------------------
Free energy:   -113.701923
Extrapolated:  -113.701863

Showing only first 2 kpts
 Kpt  Band  Eigenvalues  Occupancy
  0   170      1.04112    1.99999
  0   171      1.15287    1.99998
  0   172      3.37335    0.00005
  0   173      3.92727    0.00000

  1   170      1.06192    1.99999
  1   171      1.15315    1.99998
  1   172      3.40455    0.00004
  1   173      3.89382    0.00000


Fermi level: 2.31995

Gap: 2.220 eV
Transition (v -> c):
  (s=0, k=3, n=171, [0.25, 0.25, 0.25]) -> (s=0, k=2, n=172, [0.25, 0.25, -0.25])
Direct/indirect transitions are different
Direct gap: 2.220 eV
Transition at: (s=0, k=2, n=171, [0.25, 0.25, -0.25])

Forces in eV/Ang:
  0 Cs   -0.00038   -0.01211    0.00438
  1 Pb    0.07400    0.00006    0.06447
  2 I    -0.07955    0.00002   -0.06334
  3 I     0.00147   -0.00108   -0.00138
  4 Cs   -0.00636   -0.01686    0.01624
  5 Pb   -0.00797    0.00007    0.01534
  6 I    -0.02801   -0.00010   -0.05361
  7 I    -0.01496   -0.00000    0.02518
  8 I    -0.00276   -0.04688    0.03096
  9 Cs   -0.00038    0.01210    0.00436
 10 Pb    0.01015   -0.00004    0.01004
 11 I    -0.00099   -0.00004   -0.01556
 12 I    -0.01699    0.00001   -0.01017
 13 I     0.00144    0.00106   -0.00130
 14 Cs   -0.00634    0.01688    0.01623
 15 Pb    0.02017   -0.00004   -0.00915
 16 I     0.00373    0.00004    0.01324
 17 I    -0.01941    0.00001   -0.00653
 18 I    -0.00277    0.04688    0.03088
 19 Cs    0.01659   -0.01446   -0.00656
 20 Pb    0.01251    0.00007    0.00081
 21 I     0.04007    0.00000   -0.02269
 22 I    -0.06832    0.00001   -0.04665
 23 I     0.03081   -0.05475   -0.00025
 24 Cs    0.01247   -0.01664    0.01043
 25 Pb   -0.00911    0.00006   -0.00959
 26 I     0.00570   -0.00001    0.01154
 27 I     0.01154    0.00000    0.01551
 28 I    -0.00630   -0.07244   -0.00479
 29 Cs    0.01661    0.01446   -0.00656
 30 Pb   -0.01031   -0.00005    0.02193
 31 I    -0.00922    0.00001   -0.01778
 32 I     0.01607   -0.00000    0.00941
 33 I     0.03082    0.05474   -0.00025
 34 Cs    0.01248    0.01663    0.01045
 35 Pb   -0.02757   -0.00005   -0.02942
 36 I    -0.00096    0.00001    0.01722
 37 I     0.01914    0.00001   -0.00725
 38 I    -0.00629    0.07244   -0.00480

System changes: positions 

Initializing position-dependent things.

Density initialized from wave functions
         .-----------------------------Cs  
        /|                              |  
       / |                              |  
      /  |                              |  
     /   |                          Cs  |  
    /    |                              |  
   /   I |     Pb     I   I   Pb        |  
  /      |                              |  
 *       Cs I               I           |  
 |       |                              |  
 |       |Pb   I  I       Pb   I  I     |  
 |   Cs  |                              |  
 |       I           Cs I               |  
 |       |                              |  
 |     I |I    Pb      I  I   Pb        |  
 |       |                              |  
 |       .---I---Cs------Cs--I----------.  
 |      /                              /   
 |     /   Pb  I   I      Pb  I       /    
 |    /                              /     
 |   /   I           Cs  I          /      
 |  / I                            /       
 | /                              /        
 |/                              /         
 *------------------------------*          

Atomic positions and initial magnetic moments

Positions:
   0 Cs    -0.144124   -0.333251   -0.132791    ( 0.0000,  0.0000,  0.0000)
   1 Pb     3.246084    3.194987    3.239824    ( 0.0000,  0.0000,  0.0000)
   2 I      1.055890    3.195068    1.171060    ( 0.0000,  0.0000,  0.0000)
   3 I      3.381287    0.023089    3.380002    ( 0.0000,  0.0000,  0.0000)
   4 Cs     0.055593   -0.263395    6.672197    ( 0.0000,  0.0000,  0.0000)
   5 Pb     3.060090    3.194970    9.499968    ( 0.0000,  0.0000,  0.0000)
   6 I      3.064315    3.194686    6.452386    ( 0.0000,  0.0000,  0.0000)
   7 I     -0.114138    3.194990    9.289438    ( 0.0000,  0.0000,  0.0000)
   8 I      3.085675    0.030394    9.786824    ( 0.0000,  0.0000,  0.0000)
   9 Cs    -0.144190    6.723298   -0.132853    ( 0.0000,  0.0000,  0.0000)
  10 Pb     3.280673    9.585015    3.279767    ( 0.0000,  0.0000,  0.0000)
  11 I      3.271847    9.584675    0.101749    ( 0.0000,  0.0000,  0.0000)
  12 I      0.101960    9.584999    3.228698    ( 0.0000,  0.0000,  0.0000)
  13 I      3.381172    6.366910    3.380609    ( 0.0000,  0.0000,  0.0000)
  14 Cs     0.055648    6.653444    6.672146    ( 0.0000,  0.0000,  0.0000)
  15 Pb     3.215047    9.585045    9.688549    ( 0.0000,  0.0000,  0.0000)
  16 I      3.174497    9.585320    6.498036    ( 0.0000,  0.0000,  0.0000)
  17 I      0.001480    9.585024    9.655701    ( 0.0000,  0.0000,  0.0000)
  18 I      3.085637    6.359636    9.786215    ( 0.0000,  0.0000,  0.0000)
  19 Cs     6.668646   -0.236418    0.048697    ( 0.0000,  0.0000,  0.0000)
  20 Pb     9.516409    3.194995    3.054863    ( 0.0000,  0.0000,  0.0000)
  21 I      9.374466    3.195048   -0.111309    ( 0.0000,  0.0000,  0.0000)
  22 I      6.467414    3.195033    2.973845    ( 0.0000,  0.0000,  0.0000)
  23 I      9.785312    0.030424    3.099172    ( 0.0000,  0.0000,  0.0000)
  24 Cs     6.406669    0.060493    6.400128    ( 0.0000,  0.0000,  0.0000)
  25 Pb     9.478349    3.194983    9.474857    ( 0.0000,  0.0000,  0.0000)
  26 I      9.384958    3.194968    6.252782    ( 0.0000,  0.0000,  0.0000)
  27 I      6.245467    3.195026    9.518003    ( 0.0000,  0.0000,  0.0000)
  28 I      9.562305    0.008748    9.560582    ( 0.0000,  0.0000,  0.0000)
  29 Cs     6.668753    6.626449    0.048684    ( 0.0000,  0.0000,  0.0000)
  30 Pb     9.686561    9.585035    3.217089    ( 0.0000,  0.0000,  0.0000)
  31 I      9.615747    9.584992    0.004421    ( 0.0000,  0.0000,  0.0000)
  32 I      6.497099    9.584994    3.226936    ( 0.0000,  0.0000,  0.0000)
  33 I      9.785283    6.359599    3.099227    ( 0.0000,  0.0000,  0.0000)
  34 Cs     6.406702    6.329495    6.400209    ( 0.0000,  0.0000,  0.0000)
  35 Pb     9.567803    9.585031    9.571384    ( 0.0000,  0.0000,  0.0000)
  36 I      9.702302    9.585040    6.392788    ( 0.0000,  0.0000,  0.0000)
  37 I      6.388741    9.584988    9.649940    ( 0.0000,  0.0000,  0.0000)
  38 I      9.562328    6.381266    9.560525    ( 0.0000,  0.0000,  0.0000)

Unit cell:
           periodic     x           y           z      points  spacing
  1. axis:    yes   12.780000    0.000000    0.000000    75     0.1704
  2. axis:    yes    0.000000   12.780000    0.000000    75     0.1704
  3. axis:    yes    0.000000    0.000000   12.780000    75     0.1704

  Lengths:  12.780000  12.780000  12.780000
  Angles:   90.000000  90.000000  90.000000

Effective grid spacing dv^(1/3) = 0.1704

     iter     time        total  log10-change:
                         energy   eigst   dens
iter:   1 03:17:51  -113.703660   -5.27
iter:   2 03:18:45  -113.703652   -6.55  -3.96
iter:   3 03:19:37  -113.703619c  -6.40  -3.99
iter:   4 03:20:29  -113.703618c  -7.88c -4.43c

Converged after 4 iterations.

Dipole moment: (18.198093, 71.113327, 18.948379) |e|*Ang

Energy contributions relative to reference atoms: (reference = -10684034.619125)

Kinetic:       +167.084391
Potential:     -185.794645
External:        +0.000000
XC:             -94.031120
Entropy (-ST):   -0.000119
Local:           -0.962185
SIC:             +0.000000
--------------------------
Free energy:   -113.703677
Extrapolated:  -113.703618

Showing only first 2 kpts
 Kpt  Band  Eigenvalues  Occupancy
  0   170      1.04059    1.99999
  0   171      1.15333    1.99998
  0   172      3.37473    0.00005
  0   173      3.92673    0.00000

  1   170      1.06126    1.99999
  1   171      1.15427    1.99998
  1   172      3.40634    0.00004
  1   173      3.89256    0.00000


Fermi level: 2.32074

Gap: 2.220 eV
Transition (v -> c):
  (s=0, k=3, n=171, [0.25, 0.25, 0.25]) -> (s=0, k=2, n=172, [0.25, 0.25, -0.25])
Direct/indirect transitions are different
Direct gap: 2.221 eV
Transition at: (s=0, k=2, n=171, [0.25, 0.25, -0.25])

Forces in eV/Ang:
  0 Cs    0.00462   -0.00509    0.00971
  1 Pb    0.05164    0.00006    0.04336
  2 I    -0.08444    0.00001   -0.06810
  3 I    -0.00414    0.00657   -0.00632
  4 Cs   -0.00362   -0.01486    0.01394
  5 Pb   -0.00727    0.00007    0.03037
  6 I    -0.03062   -0.00010   -0.05495
  7 I    -0.01112   -0.00001    0.02563
  8 I    -0.00289   -0.04705    0.02906
  9 Cs    0.00462    0.00509    0.00970
 10 Pb    0.01131   -0.00003    0.01136
 11 I    -0.00282   -0.00004   -0.01356
 12 I    -0.01491    0.00002   -0.01225
 13 I    -0.00417   -0.00658   -0.00623
 14 Cs   -0.00360    0.01488    0.01392
 15 Pb    0.01541   -0.00003   -0.01033
 16 I     0.00363    0.00005    0.01132
 17 I    -0.01887    0.00002   -0.00517
 18 I    -0.00290    0.04704    0.02898
 19 Cs    0.01468   -0.01235   -0.00405
 20 Pb    0.02893    0.00006   -0.00007
 21 I     0.04026   -0.00000   -0.01854
 22 I    -0.07030    0.00001   -0.05021
 23 I     0.02863   -0.05483   -0.00115
 24 Cs    0.01146   -0.01574    0.00966
 25 Pb   -0.00716    0.00006   -0.00587
 26 I    -0.00007   -0.00001    0.00704
 27 I     0.00805   -0.00001    0.01081
 28 I    -0.00577   -0.07659   -0.00397
 29 Cs    0.01470    0.01235   -0.00405
 30 Pb   -0.01129   -0.00004    0.01710
 31 I    -0.00798    0.00001   -0.01738
 32 I     0.01413    0.00000    0.00931
 33 I     0.02863    0.05483   -0.00115
 34 Cs    0.01148    0.01573    0.00967
 35 Pb   -0.02336   -0.00004   -0.02490
 36 I    -0.00142    0.00001    0.01653
 37 I     0.01839    0.00001   -0.00791
 38 I    -0.00576    0.07659   -0.00398

System changes: positions 

Initializing position-dependent things.

Density initialized from wave functions
         .-----------------------------Cs  
        /|                              |  
       / |                    I         |  
      /  |                              |  
     /   |                      I   Cs  |  
    /    |                              |  
   /     |     Pb      I  I   Pb      I |  
  /      |                              |  
 *       Cs I               I           |  
 |       |                              |  
 |       |Pb   I  I       Pb   I  I     |  
 |   Cs  |                              |  
 |      I|           Cs          I      |  
 |       |                              |  
 |     I |I    Pb      I  I   Pb        |  
 |       |                              |  
 |       .---I---Cs------Cs--I----------.  
 |      /                              /   
 |     /   Pb  I   I      Pb          /    
 |    /                              /     
 |   /   I           Cs             /      
 |  /I                             /       
 | /                              /        
 |/                              /         
 *------------------------------*          

Atomic positions and initial magnetic moments

Positions:
   0 Cs    -0.144712   -0.347297   -0.129221    ( 0.0000,  0.0000,  0.0000)
   1 Pb     3.300555    3.195020    3.288079    ( 0.0000,  0.0000,  0.0000)
   2 I      1.002690    3.195074    1.130313    ( 0.0000,  0.0000,  0.0000)
   3 I      3.375045    0.030732    3.371668    ( 0.0000,  0.0000,  0.0000)
   4 Cs     0.051423   -0.276158    6.685697    ( 0.0000,  0.0000,  0.0000)
   5 Pb     3.049391    3.195010    9.510278    ( 0.0000,  0.0000,  0.0000)
   6 I      3.039180    3.194608    6.403049    ( 0.0000,  0.0000,  0.0000)
   7 I     -0.122924    3.194983    9.313823    ( 0.0000,  0.0000,  0.0000)
   8 I      3.081502    0.002465    9.815043    ( 0.0000,  0.0000,  0.0000)
   9 Cs    -0.144779    6.737347   -0.129292    ( 0.0000,  0.0000,  0.0000)
  10 Pb     3.281515    9.584998    3.280574    ( 0.0000,  0.0000,  0.0000)
  11 I      3.267664    9.584647    0.093010    ( 0.0000,  0.0000,  0.0000)
  12 I      0.092311    9.585013    3.217393    ( 0.0000,  0.0000,  0.0000)
  13 I      3.374906    6.359258    3.372333    ( 0.0000,  0.0000,  0.0000)
  14 Cs     0.051493    6.666220    6.685633    ( 0.0000,  0.0000,  0.0000)
  15 Pb     3.224398    9.585032    9.688355    ( 0.0000,  0.0000,  0.0000)
  16 I      3.175283    9.585356    6.505176    ( 0.0000,  0.0000,  0.0000)
  17 I     -0.010393    9.585038    9.653550    ( 0.0000,  0.0000,  0.0000)
  18 I      3.081456    6.387562    9.814377    ( 0.0000,  0.0000,  0.0000)
  19 Cs     6.683083   -0.247064    0.044332    ( 0.0000,  0.0000,  0.0000)
  20 Pb     9.524370    3.195034    3.050271    ( 0.0000,  0.0000,  0.0000)
  21 I      9.409954    3.195044   -0.125527    ( 0.0000,  0.0000,  0.0000)
  22 I      6.407282    3.195040    2.933807    ( 0.0000,  0.0000,  0.0000)
  23 I      9.813431   -0.002938    3.096457    ( 0.0000,  0.0000,  0.0000)
  24 Cs     6.417634    0.050663    6.409504    ( 0.0000,  0.0000,  0.0000)
  25 Pb     9.471891    3.195016    9.469498    ( 0.0000,  0.0000,  0.0000)
  26 I      9.394971    3.194958    6.258183    ( 0.0000,  0.0000,  0.0000)
  27 I      6.250799    3.195022    9.534987    ( 0.0000,  0.0000,  0.0000)
  28 I      9.560247   -0.039604    9.559710    ( 0.0000,  0.0000,  0.0000)
  29 Cs     6.683205    6.637098    0.044316    ( 0.0000,  0.0000,  0.0000)
  30 Pb     9.685311    9.585016    3.227156    ( 0.0000,  0.0000,  0.0000)
  31 I      9.611451    9.585003   -0.006355    ( 0.0000,  0.0000,  0.0000)
  32 I      6.506195    9.584997    3.231924    ( 0.0000,  0.0000,  0.0000)
  33 I      9.813406    6.392960    3.096517    ( 0.0000,  0.0000,  0.0000)
  34 Cs     6.417677    6.339319    6.409601    ( 0.0000,  0.0000,  0.0000)
  35 Pb     9.552379    9.585008    9.555140    ( 0.0000,  0.0000,  0.0000)
  36 I      9.703515    9.585051    6.403326    ( 0.0000,  0.0000,  0.0000)
  37 I      6.400552    9.584996    9.646314    ( 0.0000,  0.0000,  0.0000)
  38 I      9.560272    6.429619    9.559645    ( 0.0000,  0.0000,  0.0000)

Unit cell:
           periodic     x           y           z      points  spacing
  1. axis:    yes   12.780000    0.000000    0.000000    75     0.1704
  2. axis:    yes    0.000000   12.780000    0.000000    75     0.1704
  3. axis:    yes    0.000000    0.000000   12.780000    75     0.1704

  Lengths:  12.780000  12.780000  12.780000
  Angles:   90.000000  90.000000  90.000000

Effective grid spacing dv^(1/3) = 0.1704

     iter     time        total  log10-change:
                         energy   eigst   dens
iter:   1 03:21:41  -113.719350   -2.53
iter:   2 03:22:34  -113.707906   -3.80  -2.51
iter:   3 03:23:27  -113.670174c  -3.48  -2.56
iter:   4 03:24:20  -113.668915c  -5.08  -2.92
iter:   5 03:25:12  -113.668555c  -4.90  -3.00
iter:   6 03:26:05  -113.667484c  -4.88  -3.16
iter:   7 03:26:58  -113.667191c  -5.55  -3.40
iter:   8 03:27:50  -113.667193c  -6.64  -3.75
iter:   9 03:28:43  -113.667183c  -6.82  -3.80
iter:  10 03:29:38  -113.667191c  -6.87  -3.98
iter:  11 03:30:32  -113.667191c  -7.88c -4.18c

Converged after 11 iterations.

Dipole moment: (21.775716, 85.481745, 22.393112) |e|*Ang

Energy contributions relative to reference atoms: (reference = -10684034.619125)

Kinetic:       +165.124457
Potential:     -184.110889
External:        +0.000000
XC:             -93.735783
Entropy (-ST):   -0.000123
Local:           -0.944914
SIC:             +0.000000
--------------------------
Free energy:   -113.667253
Extrapolated:  -113.667191

Showing only first 2 kpts
 Kpt  Band  Eigenvalues  Occupancy
  0   170      1.05419    1.99999
  0   171      1.17015    1.99998
  0   172      3.36573    0.00006
  0   173      3.88469    0.00000

  1   170      1.05471    1.99999
  1   171      1.17782    1.99998
  1   172      3.41743    0.00004
  1   173      3.81578    0.00000


Fermi level: 2.32341

Gap: 2.188 eV
Transition (v -> c):
  (s=0, k=3, n=171, [0.25, 0.25, 0.25]) -> (s=0, k=2, n=172, [0.25, 0.25, -0.25])
Direct/indirect transitions are different
Direct gap: 2.196 eV
Transition at: (s=0, k=0, n=171, [0.25, -0.25, -0.25])

Forces in eV/Ang:
  0 Cs    0.01442    0.01230    0.01898
  1 Pb   -0.33785   -0.00007   -0.30332
  2 I     0.14530    0.00002    0.15168
  3 I     0.00980   -0.06166    0.00791
  4 Cs   -0.00242   -0.01309    0.00661
  5 Pb   -0.00740   -0.00011   -0.04818
  6 I    -0.04117   -0.00009    0.25628
  7 I     0.03833    0.00001   -0.00641
  8 I     0.00446    0.13128    0.00268
  9 Cs    0.01442   -0.01229    0.01897
 10 Pb   -0.00387    0.00009   -0.00309
 11 I     0.00946   -0.00005    0.04008
 12 I     0.04695   -0.00000    0.00109
 13 I     0.00977    0.06167    0.00802
 14 Cs   -0.00240    0.01312    0.00659
 15 Pb   -0.03254    0.00009   -0.00076
 16 I     0.00542    0.00003   -0.02860
 17 I     0.04815   -0.00001   -0.01481
 18 I     0.00444   -0.13126    0.00261
 19 Cs    0.00642   -0.01133   -0.00478
 20 Pb   -0.05181   -0.00009   -0.02890
 21 I     0.00113    0.00001    0.05726
 22 I     0.28059    0.00003   -0.06571
 23 I    -0.00032    0.15691    0.00617
 24 Cs    0.01034   -0.02656    0.01080
 25 Pb    0.00412   -0.00010    0.01794
 26 I    -0.01088    0.00001   -0.06181
 27 I    -0.04563    0.00002   -0.00094
 28 I    -0.01660    0.20309   -0.01646
 29 Cs    0.00644    0.01134   -0.00478
 30 Pb   -0.00024    0.00008   -0.03377
 31 I    -0.01799   -0.00001    0.04286
 32 I    -0.03427   -0.00002    0.01182
 33 I    -0.00030   -0.15689    0.00617
 34 Cs    0.01035    0.02656    0.01081
 35 Pb    0.04108    0.00008    0.04344
 36 I    -0.00483   -0.00000   -0.06063
 37 I    -0.06707   -0.00001   -0.01297
 38 I    -0.01660   -0.20309   -0.01647

System changes: positions 

Initializing position-dependent things.

Density initialized from wave functions
         .-----------------------------Cs  
        /|                              |  
       / |                              |  
      /  |                              |  
     /   |                      I   Cs  |  
    /    |                              |  
   /     |     Pb      I  I   Pb      I |  
  /      |                              |  
 *       Cs I               I           |  
 |       |                              |  
 |       |Pb   I  I       Pb   I  I     |  
 |   Cs  |                              |  
 |      I|           Cs                 |  
 |       |                              |  
 |     I |I    Pb      I  I   Pb        |  
 |       |                              |  
 |       .---I---Cs------Cs--I----------.  
 |      /                              /   
 |     /   Pb  I   I      Pb  I       /    
 |    /                              /     
 |   /   I           Cs  I          /      
 |  / I                            /       
 | /                              /        
 |/                              /         
 *------------------------------*          

Atomic positions and initial magnetic moments

Positions:
   0 Cs    -0.144870   -0.340233   -0.131937    ( 0.0000,  0.0000,  0.0000)
   1 Pb     3.261284    3.194996    3.253591    ( 0.0000,  0.0000,  0.0000)
   2 I      1.041934    3.195070    1.161666    ( 0.0000,  0.0000,  0.0000)
   3 I      3.378434    0.024840    3.376351    ( 0.0000,  0.0000,  0.0000)
   4 Cs     0.054012   -0.268981    6.677684    ( 0.0000,  0.0000,  0.0000)
   5 Pb     3.056875    3.194981    9.499773    ( 0.0000,  0.0000,  0.0000)
   6 I      3.054418    3.194656    6.436451    ( 0.0000,  0.0000,  0.0000)
   7 I     -0.117423    3.194988    9.298781    ( 0.0000,  0.0000,  0.0000)
   8 I      3.084065    0.022746    9.797822    ( 0.0000,  0.0000,  0.0000)
   9 Cs    -0.144937    6.730282   -0.132003    ( 0.0000,  0.0000,  0.0000)
  10 Pb     3.280533    9.585011    3.279603    ( 0.0000,  0.0000,  0.0000)
  11 I      3.270154    9.584664    0.099303    ( 0.0000,  0.0000,  0.0000)
  12 I      0.099260    9.585004    3.224266    ( 0.0000,  0.0000,  0.0000)
  13 I      3.378310    6.365156    3.376979    ( 0.0000,  0.0000,  0.0000)
  14 Cs     0.054073    6.659036    6.677628    ( 0.0000,  0.0000,  0.0000)
  15 Pb     3.217592    9.585043    9.688361    ( 0.0000,  0.0000,  0.0000)
  16 I      3.174914    9.585334    6.500442    ( 0.0000,  0.0000,  0.0000)
  17 I     -0.002032    9.585029    9.654906    ( 0.0000,  0.0000,  0.0000)
  18 I      3.084024    6.367284    9.797192    ( 0.0000,  0.0000,  0.0000)
  19 Cs     6.674542   -0.241154    0.047019    ( 0.0000,  0.0000,  0.0000)
  20 Pb     9.515071    3.195006    3.053217    ( 0.0000,  0.0000,  0.0000)
  21 I      9.387946    3.195047   -0.116096    ( 0.0000,  0.0000,  0.0000)
  22 I      6.448110    3.195036    2.958204    ( 0.0000,  0.0000,  0.0000)
  23 I      9.796248    0.021236    3.098097    ( 0.0000,  0.0000,  0.0000)
  24 Cs     6.410923    0.056547    6.403808    ( 0.0000,  0.0000,  0.0000)
  25 Pb     9.475932    3.194992    9.472904    ( 0.0000,  0.0000,  0.0000)
  26 I      9.389382    3.194965    6.253647    ( 0.0000,  0.0000,  0.0000)
  27 I      6.246211    3.195024    9.524973    ( 0.0000,  0.0000,  0.0000)
  28 I      9.561605   -0.005089    9.560295    ( 0.0000,  0.0000,  0.0000)
  29 Cs     6.674655    6.631187    0.047005    ( 0.0000,  0.0000,  0.0000)
  30 Pb     9.686008    9.585031    3.219828    ( 0.0000,  0.0000,  0.0000)
[...]

Initializing position-dependent things.

Density initialized from wave functions
         .------------------------------Cs 
        /|                              |  
       / |                    I         |  
      /  |                              |  
     /   |                      I   Cs  |  
    /    |                              |  
   /     |     Pb     I   I   Pb      I |  
  /      |                              |  
 *       Cs I            Cs I           |  
 |       |                              |  
 |       |Pb   I  I       Pb   I  I     |  
 |   Cs  |                              |  
 |      I|           Cs                 |  
 |       |                              |  
 |     I |I    Pb      I I     Pb       |  
 |       |                              |  
 |       .---I-----------Cs--I----------.  
 |      /                              /   
 |     /   Pb  I          Pb          /    
 |    /            I                 /     
 |   /   I           Cs  I          /      
 |  /I                             /       
 | /                              /        
 |/                              /         
 *------------------------------*          

Atomic positions and initial magnetic moments

Positions:
   0 Cs    -0.095827   -0.362977   -0.052355    ( 0.0000,  0.0000,  0.0000)
   1 Pb     3.248984    3.195011    3.240881    ( 0.0000,  0.0000,  0.0000)
   2 I      0.996496    3.195235    1.195913    ( 0.0000,  0.0000,  0.0000)
   3 I      3.382557    0.021119    3.381320    ( 0.0000,  0.0000,  0.0000)
   4 Cs     0.073825   -0.263002    6.723021    ( 0.0000,  0.0000,  0.0000)
   5 Pb     3.038911    3.194948    9.485621    ( 0.0000,  0.0000,  0.0000)
   6 I      2.901337    3.193387    6.421090    ( 0.0000,  0.0000,  0.0000)
   7 I     -0.148033    3.194990    9.310768    ( 0.0000,  0.0000,  0.0000)
   8 I      3.071572    0.025204    9.853637    ( 0.0000,  0.0000,  0.0000)
   9 Cs    -0.095991    6.753156   -0.052639    ( 0.0000,  0.0000,  0.0000)
  10 Pb     3.292498    9.584984    3.290831    ( 0.0000,  0.0000,  0.0000)
  11 I      3.305745    9.583962    0.113322    ( 0.0000,  0.0000,  0.0000)
  12 I      0.112526    9.585130    3.165754    ( 0.0000,  0.0000,  0.0000)
  13 I      3.381900    6.368813    3.383563    ( 0.0000,  0.0000,  0.0000)
  14 Cs     0.074181    6.653363    6.722727    ( 0.0000,  0.0000,  0.0000)
  15 Pb     3.200827    9.585100    9.702745    ( 0.0000,  0.0000,  0.0000)
  16 I      3.128347    9.585907    6.517661    ( 0.0000,  0.0000,  0.0000)
  17 I     -0.015752    9.585133    9.683809    ( 0.0000,  0.0000,  0.0000)
  18 I      3.071339    6.364886    9.851769    ( 0.0000,  0.0000,  0.0000)
  19 Cs     6.698637   -0.221196    0.036304    ( 0.0000,  0.0000,  0.0000)
  20 Pb     9.445205    3.195077    3.018988    ( 0.0000,  0.0000,  0.0000)
  21 I      9.571160    3.195130   -0.157033    ( 0.0000,  0.0000,  0.0000)
  22 I      6.416300    3.195308    2.552629    ( 0.0000,  0.0000,  0.0000)
  23 I      9.833707    0.026456    3.095124    ( 0.0000,  0.0000,  0.0000)
  24 Cs     6.463277   -0.038609    6.477817    ( 0.0000,  0.0000,  0.0000)
  25 Pb     9.446318    3.195027    9.434844    ( 0.0000,  0.0000,  0.0000)
  26 I      9.203764    3.194944    6.203499    ( 0.0000,  0.0000,  0.0000)
  27 I      6.214464    3.195131    9.516780    ( 0.0000,  0.0000,  0.0000)
  28 I      9.515964   -0.010496    9.513051    ( 0.0000,  0.0000,  0.0000)
  29 Cs     6.699113    6.611259    0.036150    ( 0.0000,  0.0000,  0.0000)
  30 Pb     9.696301    9.585062    3.205922    ( 0.0000,  0.0000,  0.0000)
  31 I      9.585156    9.585029   -0.010438    ( 0.0000,  0.0000,  0.0000)
  32 I      6.517667    9.584835    3.260655    ( 0.0000,  0.0000,  0.0000)
  33 I      9.833892    6.363655    3.095217    ( 0.0000,  0.0000,  0.0000)
  34 Cs     6.463524    6.428670    6.478096    ( 0.0000,  0.0000,  0.0000)
  35 Pb     9.553814    9.585069    9.556135    ( 0.0000,  0.0000,  0.0000)
  36 I      9.726598    9.585093    6.383890    ( 0.0000,  0.0000,  0.0000)
  37 I      6.378173    9.584967    9.579338    ( 0.0000,  0.0000,  0.0000)
  38 I      9.516097    6.400582    9.512954    ( 0.0000,  0.0000,  0.0000)

Unit cell:
           periodic     x           y           z      points  spacing
  1. axis:    yes   12.780000    0.000000    0.000000    75     0.1704
  2. axis:    yes    0.000000   12.780000    0.000000    75     0.1704
  3. axis:    yes    0.000000    0.000000   12.780000    75     0.1704

  Lengths:  12.780000  12.780000  12.780000
  Angles:   90.000000  90.000000  90.000000

Effective grid spacing dv^(1/3) = 0.1704

     iter     time        total  log10-change:
                         energy   eigst   dens
iter:   1 09:48:35  -113.757169   -4.87
iter:   2 09:49:27  -113.757148   -6.15  -3.80
iter:   3 09:50:19  -113.757070c  -5.98  -3.85
iter:   4 09:51:11  -113.757067c  -7.54c -4.20c

Converged after 4 iterations.

Dipole moment: (3.509317, 88.798879, 5.996412) |e|*Ang

Energy contributions relative to reference atoms: (reference = -10684034.619125)

Kinetic:       +166.105892
Potential:     -184.997549
External:        +0.000000
XC:             -93.892951
Entropy (-ST):   -0.000109
Local:           -0.972404
SIC:             +0.000000
--------------------------
Free energy:   -113.757121
Extrapolated:  -113.757067

Showing only first 2 kpts
 Kpt  Band  Eigenvalues  Occupancy
  0   170      1.07253    1.99999
  0   171      1.18387    1.99998
  0   172      3.40223    0.00005
  0   173      3.93610    0.00000

  1   170      1.04942    2.00000
  1   171      1.18954    1.99998
  1   172      3.43897    0.00003
  1   173      3.90467    0.00000


Fermi level: 2.34170

Gap: 2.213 eV
Transition (v -> c):
  (s=0, k=3, n=171, [0.25, 0.25, 0.25]) -> (s=0, k=2, n=172, [0.25, 0.25, -0.25])
Direct/indirect transitions are different
Direct gap: 2.218 eV
Transition at: (s=0, k=0, n=171, [0.25, -0.25, -0.25])

Forces in eV/Ang:
  0 Cs   -0.00341   -0.00446    0.00538
  1 Pb    0.01571    0.00005   -0.05550
  2 I     0.03044    0.00003    0.03117
  3 I     0.01460   -0.00975    0.01328
  4 Cs   -0.00398   -0.01213    0.00386
  5 Pb   -0.02838   -0.00005   -0.01146
  6 I    -0.00385   -0.00021    0.06421
  7 I    -0.02288    0.00002   -0.00763
  8 I     0.00115   -0.00312    0.00920
  9 Cs   -0.00343    0.00448    0.00534
 10 Pb    0.00908    0.00003    0.00446
 11 I     0.01437   -0.00015   -0.00648
 12 I     0.00145    0.00003   -0.00185
 13 I     0.01448    0.00966    0.01364
 14 Cs   -0.00391    0.01216    0.00380
 15 Pb    0.00868    0.00003    0.00621
 16 I     0.00498    0.00012   -0.01184
 17 I    -0.00095    0.00002   -0.00148
 18 I     0.00111    0.00311    0.00894
 19 Cs    0.00631   -0.00924   -0.00291
 20 Pb    0.01968   -0.00000   -0.02127
 21 I     0.01772    0.00001   -0.04028
 22 I    -0.06275    0.00006   -0.03054
 23 I    -0.00192    0.00681    0.00345
 24 Cs    0.00974   -0.03017    0.00525
 25 Pb    0.02762   -0.00001    0.04030
 26 I    -0.02584    0.00001    0.00450
 27 I     0.00459    0.00003    0.01770
 28 I    -0.00907    0.02260   -0.00940
 29 Cs    0.00639    0.00925   -0.00295
 30 Pb   -0.00392    0.00000    0.01203
 31 I    -0.01192    0.00001   -0.00735
 32 I    -0.01518   -0.00004    0.02018
 33 I    -0.00187   -0.00680    0.00346
 34 Cs    0.00977    0.03019    0.00526
 35 Pb   -0.00129    0.00001   -0.00366
 36 I     0.00401   -0.00000   -0.00108
 37 I    -0.00460   -0.00001   -0.01309
 38 I    -0.00903   -0.02257   -0.00940

System changes: positions 

Initializing position-dependent things.

Density initialized from wave functions
         .------------------------------Cs 
        /|                              |  
       / |                    I         |  
      /  |                              |  
     /   |                      I   Cs  |  
    /    |                              |  
   /     |     Pb     I   I   Pb      I |  
  /      |                              |  
 *       Cs I            Cs I           |  
 |       |                              |  
 |       |Pb   I  I       Pb   I  I     |  
 |   Cs  |                              |  
 |      I|           Cs                 |  
 |       |                              |  
 |     I |I    Pb      I I     Pb       |  
 |       |                              |  
 |       .---I-----------Cs--I----------.  
 |      /                              /   
 |     /   Pb  I          Pb          /    
 |    /            I                 /     
 |   /   I           Cs  I          /      
 |  /I                             /       
 | /                              /        
 |/                              /         
 *------------------------------*          

Atomic positions and initial magnetic moments

Positions:
   0 Cs    -0.096158   -0.362223   -0.052188    ( 0.0000,  0.0000,  0.0000)
   1 Pb     3.248019    3.195015    3.234922    ( 0.0000,  0.0000,  0.0000)
   2 I      0.998673    3.195234    1.197834    ( 0.0000,  0.0000,  0.0000)
   3 I      3.382447    0.021421    3.380838    ( 0.0000,  0.0000,  0.0000)
   4 Cs     0.073348   -0.262847    6.722257    ( 0.0000,  0.0000,  0.0000)
   5 Pb     3.037967    3.194947    9.478740    ( 0.0000,  0.0000,  0.0000)
   6 I      2.901349    3.193392    6.430835    ( 0.0000,  0.0000,  0.0000)
   7 I     -0.147704    3.194990    9.310426    ( 0.0000,  0.0000,  0.0000)
   8 I      3.071634    0.025201    9.853811    ( 0.0000,  0.0000,  0.0000)
   9 Cs    -0.096321    6.752401   -0.052471    ( 0.0000,  0.0000,  0.0000)
  10 Pb     3.293203    9.584985    3.290919    ( 0.0000,  0.0000,  0.0000)
  11 I      3.305728    9.583964    0.113088    ( 0.0000,  0.0000,  0.0000)
  12 I      0.113023    9.585130    3.166046    ( 0.0000,  0.0000,  0.0000)
  13 I      3.381793    6.368506    3.383076    ( 0.0000,  0.0000,  0.0000)
  14 Cs     0.073704    6.653207    6.721964    ( 0.0000,  0.0000,  0.0000)
  15 Pb     3.201367    9.585100    9.702658    ( 0.0000,  0.0000,  0.0000)
  16 I      3.129258    9.585907    6.517186    ( 0.0000,  0.0000,  0.0000)
  17 I     -0.016124    9.585134    9.683635    ( 0.0000,  0.0000,  0.0000)
  18 I      3.071402    6.364888    9.851945    ( 0.0000,  0.0000,  0.0000)
  19 Cs     6.698436   -0.221461    0.036455    ( 0.0000,  0.0000,  0.0000)
  20 Pb     9.447841    3.195075    3.019736    ( 0.0000,  0.0000,  0.0000)
  21 I      9.570846    3.195128   -0.159917    ( 0.0000,  0.0000,  0.0000)
  22 I      6.413420    3.195307    2.554753    ( 0.0000,  0.0000,  0.0000)
  23 I      9.834037    0.026084    3.095287    ( 0.0000,  0.0000,  0.0000)
  24 Cs     6.463334   -0.038700    6.477294    ( 0.0000,  0.0000,  0.0000)
  25 Pb     9.447600    3.195026    9.436964    ( 0.0000,  0.0000,  0.0000)
  26 I      9.204849    3.194943    6.205114    ( 0.0000,  0.0000,  0.0000)
  27 I      6.214275    3.195131    9.517211    ( 0.0000,  0.0000,  0.0000)
  28 I      9.516128   -0.009708    9.513267    ( 0.0000,  0.0000,  0.0000)
  29 Cs     6.698911    6.611525    0.036302    ( 0.0000,  0.0000,  0.0000)
  30 Pb     9.695515    9.585061    3.206396    ( 0.0000,  0.0000,  0.0000)
  31 I      9.585018    9.585030   -0.011463    ( 0.0000,  0.0000,  0.0000)
  32 I      6.516631    9.584836    3.261229    ( 0.0000,  0.0000,  0.0000)
  33 I      9.834222    6.364027    3.095380    ( 0.0000,  0.0000,  0.0000)
  34 Cs     6.463579    6.428760    6.477571    ( 0.0000,  0.0000,  0.0000)
  35 Pb     9.554092    9.585069    9.556456    ( 0.0000,  0.0000,  0.0000)
  36 I      9.726352    9.585093    6.384468    ( 0.0000,  0.0000,  0.0000)
  37 I      6.378244    9.584967    9.579544    ( 0.0000,  0.0000,  0.0000)
  38 I      9.516262    6.399795    9.513169    ( 0.0000,  0.0000,  0.0000)

Unit cell:
           periodic     x           y           z      points  spacing
  1. axis:    yes   12.780000    0.000000    0.000000    75     0.1704
  2. axis:    yes    0.000000   12.780000    0.000000    75     0.1704
  3. axis:    yes    0.000000    0.000000   12.780000    75     0.1704

  Lengths:  12.780000  12.780000  12.780000
  Angles:   90.000000  90.000000  90.000000

Effective grid spacing dv^(1/3) = 0.1704

     iter     time        total  log10-change:
                         energy   eigst   dens
iter:   1 09:52:23  -113.758197   -4.50
iter:   2 09:53:14  -113.758086   -5.84  -3.52
iter:   3 09:54:08  -113.757774c  -5.35  -3.57
iter:   4 09:55:00  -113.757756c  -6.99  -3.94
iter:   5 09:55:52  -113.757743c  -6.84  -4.02c
iter:   6 09:56:43  -113.757740c  -6.97  -4.23c
iter:   7 09:57:35  -113.757738c  -7.45c -4.38c

Converged after 7 iterations.

Dipole moment: (3.755894, 88.744902, 6.279576) |e|*Ang

Energy contributions relative to reference atoms: (reference = -10684034.619125)

Kinetic:       +166.321150
Potential:     -185.188721
External:        +0.000000
XC:             -93.921667
Entropy (-ST):   -0.000109
Local:           -0.968445
SIC:             +0.000000
--------------------------
Free energy:   -113.757792
Extrapolated:  -113.757738

Showing only first 2 kpts
 Kpt  Band  Eigenvalues  Occupancy
  0   170      1.07254    1.99999
  0   171      1.18176    1.99998
  0   172      3.40155    0.00005
  0   173      3.93697    0.00000

  1   170      1.04904    2.00000
  1   171      1.18763    1.99998
  1   172      3.43720    0.00003
  1   173      3.90682    0.00000


Fermi level: 2.34074

Gap: 2.214 eV
Transition (v -> c):
  (s=0, k=3, n=171, [0.25, 0.25, 0.25]) -> (s=0, k=2, n=172, [0.25, 0.25, -0.25])
Direct/indirect transitions are different
Direct gap: 2.220 eV
Transition at: (s=0, k=0, n=171, [0.25, -0.25, -0.25])

Forces in eV/Ang:
  0 Cs    0.00052    0.00052    0.00513
  1 Pb    0.00320    0.00002   -0.01609
  2 I     0.01380    0.00004    0.01346
  3 I     0.00972   -0.00432    0.00880
  4 Cs    0.00198   -0.00554    0.00767
  5 Pb   -0.02732   -0.00005    0.03329
  6 I    -0.00643   -0.00024   -0.02706
  7 I    -0.01936    0.00001   -0.00791
  8 I    -0.00111    0.00012    0.00525
  9 Cs    0.00049   -0.00050    0.00510
 10 Pb    0.00734    0.00005    0.00345
 11 I     0.01360   -0.00016   -0.00558
 12 I    -0.00192    0.00003   -0.00550
 13 I     0.00960    0.00425    0.00918
 14 Cs    0.00204    0.00557    0.00760
 15 Pb    0.00487    0.00005    0.00545
 16 I     0.00400    0.00014   -0.01095
 17 I     0.00243    0.00002    0.00107
 18 I    -0.00115   -0.00013    0.00496
 19 Cs    0.00206   -0.00858   -0.00629
 20 Pb    0.02018   -0.00000   -0.02936
 21 I     0.02822    0.00001   -0.01936
 22 I    -0.04656    0.00006   -0.03889
 23 I     0.00313    0.01043    0.00163
 24 Cs    0.00404   -0.02883    0.01101
 25 Pb    0.02241   -0.00002    0.03432
 26 I    -0.02384    0.00000   -0.00651
 27 I     0.00546    0.00003    0.01362
 28 I    -0.00768    0.01779   -0.00760
 29 Cs    0.00215    0.00859   -0.00634
 30 Pb    0.00031    0.00001    0.00581
 31 I    -0.01101    0.00001   -0.00166
 32 I    -0.01285   -0.00004    0.01941
 33 I     0.00318   -0.01043    0.00165
 34 Cs    0.00408    0.02885    0.01101
 35 Pb    0.00100    0.00001    0.00225
 36 I     0.00391    0.00000   -0.00571
 37 I    -0.00690   -0.00001   -0.01409
 38 I    -0.00765   -0.01776   -0.00760

Timing:                                      incl.     excl.
-------------------------------------------------------------------
Density initialized from wave functions:   317.039   317.038   1.1% |
 Symmetrize density:                         0.001     0.001   0.0% |
Forces:                                    790.523   790.523   2.8% ||
Hamiltonian:                               158.106     0.538   0.0% |
 Atomic:                                    56.437     0.132   0.0% |
  XC Correction:                            56.305    56.305   0.2% |
 Calculate atomic Hamiltonians:             61.757    61.757   0.2% |
 Communicate:                                0.000     0.000   0.0% |
 Initialize Hamiltonian:                     0.001     0.001   0.0% |
 Poisson:                                    0.687     0.687   0.0% |
 XC 3D grid:                                38.687    38.687   0.1% |
LCAO initialization:                        69.971     0.083   0.0% |
 LCAO eigensolver:                           0.801     0.000   0.0% |
  Calculate projections:                     0.008     0.008   0.0% |
  DenseAtomicCorrection:                     0.029     0.029   0.0% |
  Distribute overlap matrix:                 0.001     0.001   0.0% |
  Orbital Layouts:                           0.050     0.050   0.0% |
  Potential matrix:                          0.657     0.657   0.0% |
  Sum over cells:                            0.056     0.056   0.0% |
 LCAO to grid:                              68.606    68.606   0.2% |
 Set positions (LCAO WFS):                   0.481     0.059   0.0% |
  Basic WFS set positions:                   0.000     0.000   0.0% |
  Basis functions set positions:             0.000     0.000   0.0% |
  P tci:                                     0.344     0.344   0.0% |
  ST tci:                                    0.070     0.070   0.0% |
  mktci:                                     0.008     0.008   0.0% |
PWDescriptor:                                0.064     0.064   0.0% |
Redistribute:                                0.363     0.363   0.0% |
SCF-cycle:                               26827.967     1.235   0.0% |
 Davidson:                               23237.033  4031.568  14.2% |-----|
  Apply H:                                3772.528  3685.337  13.0% |----|
   HMM T:                                   87.191    87.191   0.3% |
  Subspace diag:                          4734.931     0.326   0.0% |
   calc_h_matrix:                         4235.334   449.584   1.6% ||
    Apply H:                              3785.750  3698.042  13.0% |----|
     HMM T:                                 87.708    87.708   0.3% |
   diagonalize:                             72.079    72.079   0.3% |
   rotate_psi:                             427.192   427.192   1.5% ||
  calc. matrices:                         9520.229  1926.742   6.8% |--|
   Apply H:                               7593.487  7417.950  26.1% |---------|
    HMM T:                                 175.536   175.536   0.6% |
  diagonalize:                             406.277   406.277   1.4% ||
  rotate_psi:                              771.502   771.502   2.7% ||
 Density:                                 2285.924     0.008   0.0% |
  Atomic density matrices:                   2.809     2.809   0.0% |
  Mix:                                     558.620   558.620   2.0% ||
  Multipole moments:                         0.156     0.156   0.0% |
  Pseudo density:                         1724.330  1724.324   6.1% |-|
   Symmetrize density:                       0.007     0.007   0.0% |
 Hamiltonian:                             1153.918     3.978   0.0% |
  Atomic:                                  414.263     0.986   0.0% |
   XC Correction:                          413.277   413.277   1.5% ||
  Calculate atomic Hamiltonians:           451.651   451.651   1.6% ||
  Communicate:                               0.002     0.002   0.0% |
  Poisson:                                   4.926     4.926   0.0% |
  XC 3D grid:                              279.097   279.097   1.0% |
 Orthonormalize:                           149.858     0.052   0.0% |
  calc_s_matrix:                            17.986    17.986   0.1% |
  inverse-cholesky:                          1.677     1.677   0.0% |
  projections:                             101.516   101.516   0.4% |
  rotate_psi_s:                             28.627    28.627   0.1% |
Set symmetry:                                0.000     0.000   0.0% |
Other:                                     256.276   256.276   0.9% |
-------------------------------------------------------------------
Total:                                             28420.310 100.0%

Memory usage: 5.42 GiB
Date: Fri Jul 17 09:57:48 2026
