39
Lattice="12.78 0.0 0.0 0.0 12.78 0.0 0.0 0.0 12.78" Properties=species:S:1:pos:R:3:magmoms:R:1:forces:R:3 spacegroup="P m -3 m" unit_cell=conventional energy=-113.7577376175794 free_energy=-113.75779217366154 dipole="3.7558940635576743 88.7449017588276 6.279576446860389" magmom=0.0 pbc="T T T"
Cs      -0.09615764      -0.36222251      -0.05218756       0.00000000       0.00051659       0.00052252       0.00513117
Pb       3.24801921       3.19501506       3.23492183       0.00000000       0.00319670       0.00001589      -0.01609425
I        0.99867317       3.19523404       1.19783440       0.00000000       0.01380114       0.00003624       0.01345901
I        3.38244729       0.02142108       3.38083848       0.00000000       0.00972361      -0.00432341       0.00880086
Cs       0.07334840      -0.26284723       6.72225710       0.00000000       0.00197702      -0.00553538       0.00766520
Pb       3.03796679       3.19494674       9.47873950       0.00000000      -0.02732368      -0.00004998       0.03329471
I        2.90134878       3.19339221       6.43083542       0.00000000      -0.00642840      -0.00023550      -0.02706450
I       -0.14770382       3.19498954       9.31042576       0.00000000      -0.01935734       0.00000809      -0.00791131
I        3.07163413       0.02520113       9.85381068       0.00000000      -0.00110968       0.00011772       0.00524704
Cs      -0.09632094       6.75240109      -0.05247057       0.00000000       0.00049153      -0.00050140       0.00509505
Pb       3.29320266       9.58498542       3.29091925       0.00000000       0.00733838       0.00004937       0.00344504
I        3.30572843       9.58396390       0.11308836       0.00000000       0.01359608      -0.00016135      -0.00558147
I        0.11302303       9.58513026       3.16604620       0.00000000      -0.00191787       0.00003198      -0.00549837
I        3.38179263       6.36850627       3.38307634       0.00000000       0.00959672       0.00424611       0.00917706
Cs       0.07370393       6.65320683       6.72196442       0.00000000       0.00204078       0.00557190       0.00759833
Pb       3.20136689       9.58509959       9.70265814       0.00000000       0.00487292       0.00005141       0.00545466
I        3.12925762       9.58590651       6.51718551       0.00000000       0.00399968       0.00014238      -0.01094677
I       -0.01612405       9.58513357       9.68363459       0.00000000       0.00242821       0.00002271       0.00106895
I        3.07140229       6.36488837       9.85194534       0.00000000      -0.00114791      -0.00013303       0.00496061
Cs       6.69843647      -0.22146143       0.03645544       0.00000000       0.00206225      -0.00857861      -0.00629409
Pb       9.44784146       3.19507509       3.01973579       0.00000000       0.02017988      -0.00000027      -0.02935593
I        9.57084552       3.19512826      -0.15991729       0.00000000       0.02822467       0.00001266      -0.01936184
I        6.41341973       3.19530698       2.55475340       0.00000000      -0.04655674       0.00006336      -0.03888759
I        9.83403726       0.02608405       3.09528736       0.00000000       0.00312580       0.01043160       0.00163246
Cs       6.46333401      -0.03869978       6.47729359       0.00000000       0.00404004      -0.02882751       0.01100710
Pb       9.44759955       3.19502582       9.43696395       0.00000000       0.02240578      -0.00001511       0.03431574
I        9.20484942       3.19494335       6.20511355       0.00000000      -0.02384214       0.00000284      -0.00651340
I        6.21427520       3.19513064       9.51721051       0.00000000       0.00546018       0.00002927       0.01362224
I        9.51612831      -0.00970825       9.51326653       0.00000000      -0.00768327       0.01779213      -0.00760176
Cs       6.69891085       6.61152474       0.03630205       0.00000000       0.00214501       0.00859412      -0.00633846
Pb       9.69551456       9.58506122       3.20639633       0.00000000       0.00031358       0.00001448       0.00580612
I        9.58501800       9.58503046      -0.01146286       0.00000000      -0.01100578       0.00001234      -0.00166155
I        6.51663075       9.58483579       3.26122945       0.00000000      -0.01285051      -0.00004169       0.01940747
I        9.83422169       6.36402710       3.09537983       0.00000000       0.00318240      -0.01043298       0.00164587
Cs       6.46357936       6.42876022       6.47757119       0.00000000       0.00408121       0.02885098       0.01101472
Pb       9.55409150       9.58506943       9.55645577       0.00000000       0.00099620       0.00000608       0.00225042
I        9.72635159       9.58509326       6.38446755       0.00000000       0.00391343       0.00000307      -0.00571156
I        6.37824419       9.58496726       9.57954419       0.00000000      -0.00689734      -0.00000640      -0.01408841
I        9.51626220       6.39979497       9.51316887       0.00000000      -0.00765160      -0.01776293      -0.00760202
