
  ___ ___ ___ _ _ _  
 |   |   |_  | | | | 
 | | | | | . | | | | 
 |__ |  _|___|_____|  25.7.0
 |___|_|             

User:   buyer@DESKTOP-3EQA59H
Date:   Fri Jul 17 01:03:15 2026
Arch:   x86_64
Pid:    28647
CWD:    /mnt/c/Users/Buyer/dft-si
Python: 3.11.15
gpaw:   /home/buyer/miniconda3/envs/dft/lib/python3.11/site-packages/gpaw
_gpaw:  /home/buyer/miniconda3/envs/dft/lib/python3.11/site-packages/
        _gpaw.cpython-311-x86_64-linux-gnu.so
ase:    /home/buyer/miniconda3/envs/dft/lib/python3.11/site-packages/ase (version 3.29.0)
numpy:  /home/buyer/miniconda3/envs/dft/lib/python3.11/site-packages/numpy (version 2.4.6)
scipy:  /home/buyer/miniconda3/envs/dft/lib/python3.11/site-packages/scipy (version 1.17.1)
libxc:  7.0.0
units:  Angstrom and eV
cores: 1
OpenMP: True
OMP_NUM_THREADS: 1

Input parameters:
  charge: 1
  kpts: [2 2 2]
  mode: {ecut: 600.0,
         name: pw}
  xc: PBE

System changes: positions, numbers, cell, pbc, initial_charges, initial_magmoms 

Initialize ...

species:
  Cs:
    name: Caesium
    id: fa822afd343f47335d508b9ee4f394c3
    Z: 55.0
    valence: 9
    core: 46
    charge: 0.0
    file: /home/buyer/miniconda3/envs/dft/lib/python3.11/site-packages/gpaw_data/setups/Cs.PBE.gz
    compensation charges: {type: gauss,
                           rc: 0.33,
                           lmax: 2}
    cutoffs: {filter: 2.06,
              core: 2.51}
    projectors:
      #              energy  rcut
      - 5s(2.00)   -26.706   1.164
      - 6s(1.00)    -2.085   1.164
      - 5p(6.00)   -13.523   1.058
      -  p          13.688   1.058
      -  d           0.000   1.058
  
    # Using partial waves for Cs as LCAO basis

  Pb:
    name: Lead
    id: 66e73b13d76dc837202bcdb13fee58e6
    Z: 82.0
    valence: 14
    core: 68
    charge: 0.0
    file: /home/buyer/miniconda3/envs/dft/lib/python3.11/site-packages/gpaw_data/setups/Pb.PBE.gz
    compensation charges: {type: gauss,
                           rc: 0.38,
                           lmax: 2}
    cutoffs: {filter: 2.36,
              core: 2.43}
    projectors:
      #              energy  rcut
      - 6s(2.00)   -11.969   1.259
      - 6p(2.00)    -3.506   1.275
      - 5d(10.00)   -21.211   1.217
      -  s          15.243   1.259
      -  p          23.705   1.275
      -  d           6.001   1.217
  
    # Using partial waves for Pb as LCAO basis

  I:
    name: Iodine
    id: 91405a398e4dfe788ff04f57531604ec
    Z: 53.0
    valence: 7
    core: 46
    charge: 0.0
    file: /home/buyer/miniconda3/envs/dft/lib/python3.11/site-packages/gpaw_data/setups/I.PBE.gz
    compensation charges: {type: gauss,
                           rc: 0.37,
                           lmax: 2}
    cutoffs: {filter: 2.06,
              core: 2.90}
    projectors:
      #              energy  rcut
      - 5s(2.00)   -17.382   1.164
      - 5p(5.00)    -7.088   1.164
      -  s           9.829   1.164
      -  p          20.123   1.164
      -  d           0.000   1.164
  
    # Using partial waves for I as LCAO basis

Reference energy: -10684034.619125  # eV

Spin-paired calculation

Convergence criteria:
 Maximum [total energy] change in last 3 cyles: 0.0005 eV / valence electron
 Maximum integral of absolute [dens]ity change: 0.0001 electrons / valence electron
 Maximum integral of absolute [eigenst]ate change: 4e-08 eV^2 / valence electron
 Maximum number of scf [iter]ations: 333
 (Square brackets indicate name in SCF output, whereas a 'c' in
 the SCF output indicates the quantity has converged.)

Symmetries present (total): 4

  ( 1  0  0)  ( 1  0  0)  ( 0  1  0)  ( 0  1  0)
  ( 0  1  0)  ( 0  1  0)  ( 1  0  0)  ( 1  0  0)
  ( 0  0  1)  ( 0  0 -1)  ( 0  0  1)  ( 0  0 -1)

8 k-points: 2 x 2 x 2 Monkhorst-Pack grid
2 k-points in the irreducible part of the Brillouin zone
       k-points in crystal coordinates                weights
   0:     0.25000000   -0.25000000    0.25000000          4/8
   1:     0.25000000    0.25000000    0.25000000          4/8

Wave functions: Plane wave expansion
  Cutoff energy: 600.000 eV
  Number of coefficients (min, max): 69650, 69650
  Pulay-stress correction: 0.000000 eV/Ang^3 (de/decut=0.000000)
  Using FFTW library
  ScaLapack parameters: grid=1x1, blocksize=None
  Wavefunction extrapolation:
    Improved wavefunction reuse through dual PAW basis 

Occupation numbers: Fermi-Dirac:
  width: 0.1000  # eV
 

Eigensolver
   Davidson(niter=2) 

Densities:
  Coarse grid: 75*75*75 grid
  Fine grid: 150*150*150 grid
  Total Charge: 1.000000 

Density mixing:
  Method: separate
  Backend: pulay
  Linear mixing parameter: 0.05
  old densities: 5
  Damping of long wavelength oscillations: 50 

Hamiltonian:
  XC and Coulomb potentials evaluated on a 150*150*150 grid
  Using the PBE Exchange-Correlation functional
  External potential:
    NoExternalPotential
Poisson solver:
  Uniform background charge: 1.000 electrons
 

XC parameters: PBE with 2 nearest neighbor stencil

Memory estimate:
  Process memory now: 380.24 MiB
  Calculator: 995.11 MiB
    Density: 227.10 MiB
      Arrays: 83.68 MiB
      Localized functions: 111.23 MiB
      Mixer: 32.19 MiB
    Hamiltonian: 57.72 MiB
      Arrays: 54.72 MiB
      XC: 0.00 MiB
      Poisson: 0.00 MiB
      vbar: 3.01 MiB
    Wavefunctions: 710.28 MiB
      Arrays psit_nG: 433.61 MiB
      Eigensolver: 228.48 MiB
      Projections: 3.41 MiB
      Projectors: 26.57 MiB
      PW-descriptor: 18.22 MiB

Total number of cores used: 1

Number of atoms: 39
Number of atomic orbitals: 204
Number of bands in calculation: 204
Number of valence electrons: 344
Bands to converge: occupied

... initialized

Initializing position-dependent things.

Density initialized from atomic densities
Creating initial wave functions:
  204 bands from LCAO basis set

         .------------------------------.  
        /|                              |  
       / |                              |  
      /  |                              |  
     /   |                      I       |  
    /    |                              |  
   /     |     Pb      I      Pb      I |  
  /      |                              |  
 *       |   I           Cs I           Cs 
 |       |                              |  
 | I     | Pb  I  I       Pb  I         |  
 |       |                              |  
 |       I           Cs         I   Cs  |  
 |       |                              |  
 |       | I   Pb      I  I   Pb      I |  
 |       |                              |  
 |       .---I-----------Cs-I----------Cs  
 |      /                              /   
 | I   /   Pb  I  I       Pb  I       /    
 |    /                              /     
 |   /   I           Cs             /s     
 |  /                              /       
 | /                      I       /        
 |/                              /         
 *------------------------------*          

Atomic positions and initial magnetic moments

Positions:
   0 Cs    -0.191173   -0.191173   -0.000000    ( 0.0000,  0.0000,  0.0000)
   1 Pb     3.195002    3.195002    3.300171    ( 0.0000,  0.0000,  0.0000)
   2 I      0.031403    3.195013    3.106711    ( 0.0000,  0.0000,  0.0000)
   3 I      3.195013    0.031403    3.106711    ( 0.0000,  0.0000,  0.0000)
   4 Cs    -0.027476   -0.027476    6.390000    ( 0.0000,  0.0000,  0.0000)
   5 Pb     3.195002    3.195002    9.479829    ( 0.0000,  0.0000,  0.0000)
   6 I      3.195005    3.195005    6.390000    ( 0.0000,  0.0000,  0.0000)
   7 I      0.031403    3.195013    9.673289    ( 0.0000,  0.0000,  0.0000)
   8 I      3.195013    0.031403    9.673289    ( 0.0000,  0.0000,  0.0000)
   9 Cs    -0.191181    6.581192   -0.000000    ( 0.0000,  0.0000,  0.0000)
  10 Pb     3.195001    9.585002    3.187558    ( 0.0000,  0.0000,  0.0000)
  11 I      3.195010    9.584973   -0.000000    ( 0.0000,  0.0000,  0.0000)
  12 I     -0.000158    9.584990    3.192723    ( 0.0000,  0.0000,  0.0000)
  13 I      3.195012    6.358597    3.106753    ( 0.0000,  0.0000,  0.0000)
  14 Cs    -0.027472    6.417476    6.390000    ( 0.0000,  0.0000,  0.0000)
  15 Pb     3.195001    9.585002    9.592442    ( 0.0000,  0.0000,  0.0000)
  16 I      3.195009    9.585013    6.390000    ( 0.0000,  0.0000,  0.0000)
  17 I     -0.000158    9.584990    9.587277    ( 0.0000,  0.0000,  0.0000)
  18 I      3.195012    6.358597    9.673247    ( 0.0000,  0.0000,  0.0000)
  19 Cs     6.581192   -0.191181   -0.000000    ( 0.0000,  0.0000,  0.0000)
  20 Pb     9.585002    3.195001    3.187558    ( 0.0000,  0.0000,  0.0000)
  21 I      9.584973    3.195010   -0.000000    ( 0.0000,  0.0000,  0.0000)
  22 I      6.358597    3.195012    3.106753    ( 0.0000,  0.0000,  0.0000)
  23 I      9.584990   -0.000158    3.192723    ( 0.0000,  0.0000,  0.0000)
  24 Cs     6.417476   -0.027472    6.390000    ( 0.0000,  0.0000,  0.0000)
  25 Pb     9.585002    3.195001    9.592442    ( 0.0000,  0.0000,  0.0000)
  26 I      9.585013    3.195009    6.390000    ( 0.0000,  0.0000,  0.0000)
  27 I      6.358597    3.195012    9.673247    ( 0.0000,  0.0000,  0.0000)
  28 I      9.584990   -0.000158    9.587277    ( 0.0000,  0.0000,  0.0000)
  29 Cs     6.581200    6.581200   -0.000000    ( 0.0000,  0.0000,  0.0000)
  30 Pb     9.585000    9.585000    3.216749    ( 0.0000,  0.0000,  0.0000)
  31 I      9.584981    9.584981   -0.000000    ( 0.0000,  0.0000,  0.0000)
  32 I      6.390157    9.584991    3.192725    ( 0.0000,  0.0000,  0.0000)
  33 I      9.584991    6.390157    3.192725    ( 0.0000,  0.0000,  0.0000)
  34 Cs     6.417471    6.417471    6.390000    ( 0.0000,  0.0000,  0.0000)
  35 Pb     9.585000    9.585000    9.563251    ( 0.0000,  0.0000,  0.0000)
  36 I      9.584995    9.584995    6.390000    ( 0.0000,  0.0000,  0.0000)
  37 I      6.390157    9.584991    9.587275    ( 0.0000,  0.0000,  0.0000)
  38 I      9.584991    6.390157    9.587275    ( 0.0000,  0.0000,  0.0000)

Unit cell:
           periodic     x           y           z      points  spacing
  1. axis:    yes   12.780000    0.000000    0.000000    75     0.1704
  2. axis:    yes    0.000000   12.780000    0.000000    75     0.1704
  3. axis:    yes    0.000000    0.000000   12.780000    75     0.1704

  Lengths:  12.780000  12.780000  12.780000
  Angles:   90.000000  90.000000  90.000000

Effective grid spacing dv^(1/3) = 0.1704

     iter     time        total  log10-change:
                         energy   eigst   dens
iter:   1 01:04:26  -117.692063
iter:   2 01:04:56  -116.997956   -1.43  -1.27
iter:   3 01:05:24  -114.272133   -1.92  -1.32
iter:   4 01:05:51  -113.938538   -1.99  -1.53
iter:   5 01:06:20  -113.967143   -2.64  -1.71
iter:   6 01:06:48  -113.837172c  -3.49  -2.00
iter:   7 01:07:17  -113.770646   -3.29  -2.20
iter:   8 01:07:45  -113.771594c  -4.27  -2.34
iter:   9 01:08:15  -113.770909c  -4.72  -2.76
iter:  10 01:08:45  -113.769923c  -4.90  -2.76
iter:  11 01:09:23  -113.770020c  -5.55  -3.27
iter:  12 01:09:54  -113.769856c  -6.18  -3.32
iter:  13 01:10:22  -113.769984c  -6.76  -3.35
iter:  14 01:10:51  -113.769904c  -5.84  -3.31
iter:  15 01:11:20  -113.769753c  -6.69  -3.34
iter:  16 01:11:48  -113.769910c  -6.26  -3.32
iter:  17 01:12:17  -113.769896c  -7.44c -3.43
iter:  18 01:12:46  -113.769942c  -7.26  -3.43
iter:  19 01:13:14  -113.770053c  -6.09  -3.46
iter:  20 01:13:43  -113.770054c  -7.48c -3.70
iter:  21 01:14:13  -113.770038c  -7.40c -3.73
iter:  22 01:14:40  -113.770022c  -6.70  -3.77
iter:  23 01:15:09  -113.770019c  -7.88c -3.86
iter:  24 01:15:37  -113.770007c  -6.79  -3.91
iter:  25 01:16:05  -113.770005c  -8.32c -4.49c

Converged after 25 iterations.

Dipole moment: (51.269153, 51.269153, -0.000000) |e|*Ang

Energy contributions relative to reference atoms: (reference = -10684034.619125)

Kinetic:       +162.872648
Potential:     -182.263558
External:        +0.000000
XC:             -93.399378
Entropy (-ST):   -0.000248
Local:           -0.979593
SIC:             +0.000000
--------------------------
Free energy:   -113.770129
Extrapolated:  -113.770005

Showing all kpts
 Kpt  Band  Eigenvalues  Occupancy
  0   170      1.05359    1.99999
  0   171      1.14612    1.99997
  0   172      3.24970    0.00010
  0   173      3.96094    0.00000

  1   170      1.05359    1.99999
  1   171      1.14612    1.99997
  1   172      3.24970    0.00010
  1   173      3.96094    0.00000


Fermi level: 2.26201

Gap: 2.104 eV
Transition (v -> c):
  (s=0, k=1, n=171, [0.25, 0.25, 0.25]) -> (s=0, k=0, n=172, [0.25, -0.25, 0.25])
Direct/indirect transitions are different
Direct gap: 2.104 eV
Transition at: (s=0, k=1, n=171, [0.25, 0.25, 0.25])

Forces in eV/Ang:
  0 Cs   -0.04339   -0.04339    0.00000
  1 Pb   -0.00003   -0.00003    0.06096
  2 I     0.02239   -0.00001   -0.04108
  3 I    -0.00001    0.02239   -0.04108
  4 Cs   -0.04041   -0.04041    0.00000
  5 Pb   -0.00003   -0.00003   -0.06096
  6 I    -0.00001   -0.00001    0.00000
  7 I     0.02239   -0.00001    0.04108
  8 I    -0.00001    0.02239    0.04108
  9 Cs   -0.04339    0.04338    0.00000
 10 Pb   -0.00003    0.00004    0.00298
 11 I    -0.00001   -0.00000    0.00000
 12 I     0.01164    0.00001   -0.00553
 13 I    -0.00001   -0.02238   -0.04108
 14 Cs   -0.04041    0.04041    0.00000
 15 Pb   -0.00003    0.00004   -0.00298
 16 I    -0.00001    0.00001    0.00000
 17 I     0.01164    0.00001    0.00553
 18 I    -0.00001   -0.02238    0.04108
 19 Cs    0.04338   -0.04339    0.00000
 20 Pb    0.00004   -0.00003    0.00298
 21 I    -0.00000   -0.00001    0.00000
 22 I    -0.02238   -0.00001   -0.04108
 23 I     0.00001    0.01164   -0.00553
 24 Cs    0.04041   -0.04041    0.00000
 25 Pb    0.00004   -0.00003   -0.00298
 26 I     0.00001   -0.00001    0.00000
 27 I    -0.02238   -0.00001    0.04108
 28 I     0.00001    0.01164    0.00553
 29 Cs    0.04338    0.04338    0.00000
 30 Pb    0.00003    0.00003    0.00048
 31 I     0.00001    0.00001    0.00000
 32 I    -0.01164    0.00001   -0.00552
 33 I     0.00001   -0.01164   -0.00552
 34 Cs    0.04041    0.04041    0.00000
 35 Pb    0.00003    0.00003   -0.00048
 36 I     0.00000    0.00000    0.00000
 37 I    -0.01164    0.00001    0.00552
 38 I     0.00001   -0.01164    0.00552

System changes: positions 

Initializing position-dependent things.

Density initialized from wave functions
         .------------------------------.  
        /|                              |  
       / |                              |  
      /  |                              |  
     /   |                              |  
    /    |                              |  
   /   I |     Pb     I       Pb        |  
  /      |                              |  
 *       |   I           Cs I           Cs 
 |       |                              |  
 | I     | Pb  I  I       Pb  I         |  
 |       |                              |  
 |       I           Cs I           Cs  |  
 |       |                              |  
 |     I | I   Pb     I   I   Pb        |  
 |       |                              |  
 |       .---I-----------Cs-I----------Cs  
 |      /                              /   
 | I   /   Pb  I  I       Pb  I       /    
 |    /                              /     
 |   /   I           Cs I           /s     
 |  /                              /       
 | /                      I       /        
 |/                              /         
 *------------------------------*          

Atomic positions and initial magnetic moments

Positions:
   0 Cs    -0.191793   -0.191793    0.000000    ( 0.0000,  0.0000,  0.0000)
   1 Pb     3.195001    3.195001    3.301042    ( 0.0000,  0.0000,  0.0000)
   2 I      0.031723    3.195013    3.106124    ( 0.0000,  0.0000,  0.0000)
   3 I      3.195013    0.031723    3.106124    ( 0.0000,  0.0000,  0.0000)
   4 Cs    -0.028053   -0.028053    6.390000    ( 0.0000,  0.0000,  0.0000)
   5 Pb     3.195001    3.195001    9.478958    ( 0.0000,  0.0000,  0.0000)
   6 I      3.195005    3.195005    6.390000    ( 0.0000,  0.0000,  0.0000)
   7 I      0.031723    3.195013    9.673876    ( 0.0000,  0.0000,  0.0000)
   8 I      3.195013    0.031723    9.673876    ( 0.0000,  0.0000,  0.0000)
   9 Cs    -0.191801    6.581812    0.000000    ( 0.0000,  0.0000,  0.0000)
  10 Pb     3.195000    9.585003    3.187601    ( 0.0000,  0.0000,  0.0000)
  11 I      3.195010    9.584973    0.000000    ( 0.0000,  0.0000,  0.0000)
  12 I      0.000009    9.584990    3.192644    ( 0.0000,  0.0000,  0.0000)
  13 I      3.195012    6.358278    3.106166    ( 0.0000,  0.0000,  0.0000)
  14 Cs    -0.028049    6.418053    6.390000    ( 0.0000,  0.0000,  0.0000)
  15 Pb     3.195000    9.585003    9.592399    ( 0.0000,  0.0000,  0.0000)
  16 I      3.195009    9.585013    6.390000    ( 0.0000,  0.0000,  0.0000)
  17 I      0.000009    9.584990    9.587356    ( 0.0000,  0.0000,  0.0000)
  18 I      3.195012    6.358278    9.673834    ( 0.0000,  0.0000,  0.0000)
  19 Cs     6.581812   -0.191801    0.000000    ( 0.0000,  0.0000,  0.0000)
  20 Pb     9.585003    3.195000    3.187601    ( 0.0000,  0.0000,  0.0000)
  21 I      9.584973    3.195010    0.000000    ( 0.0000,  0.0000,  0.0000)
  22 I      6.358278    3.195012    3.106166    ( 0.0000,  0.0000,  0.0000)
  23 I      9.584990    0.000009    3.192644    ( 0.0000,  0.0000,  0.0000)
  24 Cs     6.418053   -0.028049    6.390000    ( 0.0000,  0.0000,  0.0000)
  25 Pb     9.585003    3.195000    9.592399    ( 0.0000,  0.0000,  0.0000)
  26 I      9.585013    3.195009    6.390000    ( 0.0000,  0.0000,  0.0000)
  27 I      6.358278    3.195012    9.673834    ( 0.0000,  0.0000,  0.0000)
  28 I      9.584990    0.000009    9.587356    ( 0.0000,  0.0000,  0.0000)
  29 Cs     6.581819    6.581819    0.000000    ( 0.0000,  0.0000,  0.0000)
  30 Pb     9.585000    9.585000    3.216756    ( 0.0000,  0.0000,  0.0000)
  31 I      9.584981    9.584981    0.000000    ( 0.0000,  0.0000,  0.0000)
  32 I      6.389991    9.584991    3.192646    ( 0.0000,  0.0000,  0.0000)
  33 I      9.584991    6.389991    3.192646    ( 0.0000,  0.0000,  0.0000)
  34 Cs     6.418049    6.418049    6.390000    ( 0.0000,  0.0000,  0.0000)
  35 Pb     9.585000    9.585000    9.563244    ( 0.0000,  0.0000,  0.0000)
  36 I      9.584996    9.584996    6.390000    ( 0.0000,  0.0000,  0.0000)
  37 I      6.389991    9.584991    9.587354    ( 0.0000,  0.0000,  0.0000)
  38 I      9.584991    6.389991    9.587354    ( 0.0000,  0.0000,  0.0000)

Unit cell:
           periodic     x           y           z      points  spacing
  1. axis:    yes   12.780000    0.000000    0.000000    75     0.1704
  2. axis:    yes    0.000000   12.780000    0.000000    75     0.1704
  3. axis:    yes    0.000000    0.000000   12.780000    75     0.1704

  Lengths:  12.780000  12.780000  12.780000
  Angles:   90.000000  90.000000  90.000000

Effective grid spacing dv^(1/3) = 0.1704

     iter     time        total  log10-change:
                         energy   eigst   dens
iter:   1 01:16:48  -113.770789   -6.31
iter:   2 01:17:16  -113.770788   -7.56c -4.51c
iter:   3 01:17:45  -113.770785c  -7.93c -4.55c

Converged after 3 iterations.

Dipole moment: (51.447858, 51.447858, -0.000000) |e|*Ang

Energy contributions relative to reference atoms: (reference = -10684034.619125)

Kinetic:       +162.738714
Potential:     -182.144199
External:        +0.000000
XC:             -93.397822
Entropy (-ST):   -0.000246
Local:           -0.967355
SIC:             +0.000000
--------------------------
Free energy:   -113.770908
Extrapolated:  -113.770785

Showing all kpts
 Kpt  Band  Eigenvalues  Occupancy
  0   170      1.05300    1.99999
  0   171      1.14578    1.99997
  0   172      3.25124    0.00010
  0   173      3.96094    0.00000

  1   170      1.05300    1.99999
  1   171      1.14578    1.99997
  1   172      3.25124    0.00010
  1   173      3.96094    0.00000


Fermi level: 2.26262

Gap: 2.105 eV
Transition (v -> c):
  (s=0, k=1, n=171, [0.25, 0.25, 0.25]) -> (s=0, k=0, n=172, [0.25, -0.25, 0.25])
Direct/indirect transitions are different
Direct gap: 2.105 eV
Transition at: (s=0, k=1, n=171, [0.25, 0.25, 0.25])

Forces in eV/Ang:
  0 Cs   -0.04432   -0.04432    0.00000
  1 Pb   -0.00002   -0.00002    0.05879
  2 I     0.01955   -0.00001   -0.04194
  3 I    -0.00001    0.01955   -0.04194
  4 Cs   -0.04155   -0.04155    0.00000
  5 Pb   -0.00002   -0.00002   -0.05879
  6 I    -0.00001   -0.00001    0.00000
  7 I     0.01955   -0.00001    0.04194
  8 I    -0.00001    0.01955    0.04194
  9 Cs   -0.04432    0.04432    0.00000
 10 Pb   -0.00002    0.00003    0.00253
 11 I    -0.00000   -0.00000    0.00000
 12 I     0.00844    0.00000   -0.00574
 13 I    -0.00000   -0.01954   -0.04194
 14 Cs   -0.04155    0.04155    0.00000
 15 Pb   -0.00002    0.00003   -0.00253
 16 I    -0.00000    0.00001    0.00000
 17 I     0.00844    0.00000    0.00574
 18 I    -0.00000   -0.01954    0.04194
 19 Cs    0.04432   -0.04432    0.00000
 20 Pb    0.00003   -0.00002    0.00253
 21 I    -0.00000   -0.00000    0.00000
 22 I    -0.01954   -0.00000   -0.04194
 23 I     0.00000    0.00844   -0.00574
 24 Cs    0.04155   -0.04155    0.00000
 25 Pb    0.00003   -0.00002   -0.00253
 26 I     0.00001   -0.00000    0.00000
 27 I    -0.01954   -0.00000    0.04194
 28 I     0.00000    0.00844    0.00574
 29 Cs    0.04432    0.04432    0.00000
 30 Pb    0.00002    0.00002   -0.00037
 31 I     0.00001    0.00001    0.00000
 32 I    -0.00844    0.00000   -0.00573
 33 I     0.00000   -0.00844   -0.00573
 34 Cs    0.04155    0.04155    0.00000
 35 Pb    0.00002    0.00002    0.00037
 36 I     0.00000    0.00000    0.00000
 37 I    -0.00844    0.00000    0.00573
 38 I     0.00000   -0.00844    0.00573

System changes: positions 

Initializing position-dependent things.

Density initialized from wave functions
         .------------------------------.  
        /|                              |  
       / |                              |  
      /  |                              |  
     /   |                              |  
    /    |                              |  
   /   I |     Pb     I       Pb        |  
  /      |                              |  
 *       |   I           Cs I           Cs 
 |       |                              |  
 | I     | Pb  I  I       Pb  I         |  
 |       |                              |  
 |       I           Cs I           Cs  |  
 |       |                              |  
 |     I | I   Pb     I   I   Pb        |  
 |       |                              |  
 |       .---I-----------Cs-I----------Cs  
 |      /                              /   
 | I   /   Pb  I  I       Pb  I       /    
 |    /                              /     
 |   /   I            CsI          C/      
 |  /                              /       
 | /                      I       /        
 |/                              /         
 *------------------------------*          

Atomic positions and initial magnetic moments

Positions:
   0 Cs    -0.333214   -0.333214   -0.000000    ( 0.0000,  0.0000,  0.0000)
   1 Pb     3.194917    3.194917    3.495898    ( 0.0000,  0.0000,  0.0000)
   2 I      0.101044    3.194992    2.972250    ( 0.0000,  0.0000,  0.0000)
   3 I      3.194992    0.101044    2.972250    ( 0.0000,  0.0000,  0.0000)
   4 Cs    -0.160076   -0.160076    6.390000    ( 0.0000,  0.0000,  0.0000)
   5 Pb     3.194917    3.194917    9.284102    ( 0.0000,  0.0000,  0.0000)
   6 I      3.194969    3.194969    6.390000    ( 0.0000,  0.0000,  0.0000)
   7 I      0.101044    3.194992    9.807750    ( 0.0000,  0.0000,  0.0000)
   8 I      3.194992    0.101044    9.807750    ( 0.0000,  0.0000,  0.0000)
   9 Cs    -0.333218    6.723221   -0.000000    ( 0.0000,  0.0000,  0.0000)
  10 Pb     3.194911    9.585118    3.196739    ( 0.0000,  0.0000,  0.0000)
  11 I      3.194994    9.584970    0.000000    ( 0.0000,  0.0000,  0.0000)
  12 I      0.034149    9.585009    3.174533    ( 0.0000,  0.0000,  0.0000)
  13 I      3.194993    6.289001    2.972297    ( 0.0000,  0.0000,  0.0000)
  14 Cs    -0.160067    6.550073    6.390000    ( 0.0000,  0.0000,  0.0000)
  15 Pb     3.194911    9.585118    9.583261    ( 0.0000,  0.0000,  0.0000)
  16 I      3.194990    9.585040    6.390000    ( 0.0000,  0.0000,  0.0000)
  17 I      0.034149    9.585009    9.605467    ( 0.0000,  0.0000,  0.0000)
  18 I      3.194993    6.289001    9.807703    ( 0.0000,  0.0000,  0.0000)
  19 Cs     6.723221   -0.333218   -0.000000    ( 0.0000,  0.0000,  0.0000)
  20 Pb     9.585118    3.194911    3.196739    ( 0.0000,  0.0000,  0.0000)
  21 I      9.584970    3.194994   -0.000000    ( 0.0000,  0.0000,  0.0000)
  22 I      6.289001    3.194993    2.972297    ( 0.0000,  0.0000,  0.0000)
  23 I      9.585009    0.034149    3.174533    ( 0.0000,  0.0000,  0.0000)
  24 Cs     6.550073   -0.160067    6.390000    ( 0.0000,  0.0000,  0.0000)
  25 Pb     9.585118    3.194911    9.583261    ( 0.0000,  0.0000,  0.0000)
  26 I      9.585040    3.194990    6.390000    ( 0.0000,  0.0000,  0.0000)
  27 I      6.289001    3.194993    9.807703    ( 0.0000,  0.0000,  0.0000)
  28 I      9.585009    0.034149    9.605467    ( 0.0000,  0.0000,  0.0000)
  29 Cs     6.723225    6.723225   -0.000000    ( 0.0000,  0.0000,  0.0000)
  30 Pb     9.585090    9.585090    3.217370    ( 0.0000,  0.0000,  0.0000)
  31 I      9.585019    9.585019    0.000000    ( 0.0000,  0.0000,  0.0000)
  32 I      6.355855    9.585007    3.174544    ( 0.0000,  0.0000,  0.0000)
  33 I      9.585007    6.355855    3.174544    ( 0.0000,  0.0000,  0.0000)
  34 Cs     6.550065    6.550065    6.390000    ( 0.0000,  0.0000,  0.0000)
  35 Pb     9.585090    9.585090    9.562630    ( 0.0000,  0.0000,  0.0000)
  36 I      9.585010    9.585010    6.390000    ( 0.0000,  0.0000,  0.0000)
  37 I      6.355855    9.585007    9.605456    ( 0.0000,  0.0000,  0.0000)
  38 I      9.585007    6.355855    9.605456    ( 0.0000,  0.0000,  0.0000)

Unit cell:
           periodic     x           y           z      points  spacing
  1. axis:    yes   12.780000    0.000000    0.000000    75     0.1704
  2. axis:    yes    0.000000   12.780000    0.000000    75     0.1704
  3. axis:    yes    0.000000    0.000000   12.780000    75     0.1704

  Lengths:  12.780000  12.780000  12.780000
  Angles:   90.000000  90.000000  90.000000

Effective grid spacing dv^(1/3) = 0.1704

     iter     time        total  log10-change:
                         energy   eigst   dens
iter:   1 01:18:27  -113.723360   -1.62
iter:   2 01:18:56  -113.666487   -2.89  -2.07
iter:   3 01:19:25  -113.504516   -2.75  -2.11
iter:   4 01:19:53  -113.498550c  -4.39  -2.64
iter:   5 01:20:21  -113.500746c  -4.29  -2.65
iter:   6 01:20:49  -113.493115c  -4.36  -2.72
iter:   7 01:21:18  -113.492621c  -5.11  -3.06
iter:   8 01:21:46  -113.492571c  -6.05  -3.47
iter:   9 01:22:15  -113.492517c  -6.49  -3.58
iter:  10 01:22:43  -113.492551c  -6.41  -3.72
iter:  11 01:23:11  -113.492545c  -7.23  -3.97
iter:  12 01:23:39  -113.492540c  -7.48c -3.99
iter:  13 01:24:07  -113.492541c  -7.49c -4.10c

Converged after 13 iterations.

Dipole moment: (78.762292, 78.762292, -0.000000) |e|*Ang

Energy contributions relative to reference atoms: (reference = -10684034.619125)

Kinetic:       +171.856033
Potential:     -189.741201
External:        +0.000000
XC:             -94.652896
Entropy (-ST):   -0.000066
Local:           -0.954444
SIC:             +0.000000
--------------------------
Free energy:   -113.492574
Extrapolated:  -113.492541

Showing all kpts
 Kpt  Band  Eigenvalues  Occupancy
  0   170      1.13621    2.00000
  0   171      1.34339    1.99998
  0   172      3.66327    0.00002
  0   173      3.92881    0.00000

  1   170      1.13621    2.00000
  1   171      1.34339    1.99998
  1   172      3.66327    0.00002
  1   173      3.92881    0.00000


Fermi level: 2.51581

Gap: 2.320 eV
Transition (v -> c):
  (s=0, k=0, n=171, [0.25, -0.25, 0.25]) -> (s=0, k=1, n=172, [0.25, 0.25, 0.25])
Direct/indirect transitions are different
Direct gap: 2.320 eV
Transition at: (s=0, k=0, n=171, [0.25, -0.25, 0.25])

Forces in eV/Ang:
  0 Cs    0.10171    0.10171    0.00000
  1 Pb    0.00046    0.00046   -0.94944
  2 I    -0.30572   -0.00003    0.01137
  3 I    -0.00003   -0.30572    0.01137
  4 Cs    0.00969    0.00969    0.00000
  5 Pb    0.00046    0.00046    0.94944
  6 I     0.00000    0.00000    0.00000
  7 I    -0.30572   -0.00003   -0.01137
  8 I    -0.00003   -0.30572   -0.01137
  9 Cs    0.10171   -0.10172    0.00000
 10 Pb    0.00043   -0.00024   -0.12259
 11 I    -0.00003    0.00004    0.00000
 12 I    -0.23304    0.00004    0.02791
 13 I    -0.00003    0.30548    0.01148
 14 Cs    0.00969   -0.00970    0.00000
 15 Pb    0.00043   -0.00024    0.12259
 16 I    -0.00004    0.00006    0.00000
 17 I    -0.23304    0.00004   -0.02791
 18 I    -0.00003    0.30548   -0.01148
 19 Cs   -0.10172    0.10171    0.00000
 20 Pb   -0.00024    0.00043   -0.12259
 21 I     0.00004   -0.00003    0.00000
 22 I     0.30548   -0.00003    0.01148
 23 I     0.00004   -0.23304    0.02791
 24 Cs   -0.00970    0.00969    0.00000
 25 Pb   -0.00024    0.00043    0.12259
 26 I     0.00006   -0.00004    0.00000
 27 I     0.30548   -0.00003   -0.01148
 28 I     0.00004   -0.23304   -0.02791
 29 Cs   -0.10173   -0.10173    0.00000
 30 Pb   -0.00031   -0.00031   -0.02163
 31 I     0.00003    0.00003    0.00000
 32 I     0.23295    0.00004    0.02790
 33 I     0.00004    0.23295    0.02790
 34 Cs   -0.00970   -0.00970    0.00000
 35 Pb   -0.00031   -0.00031    0.02163
 36 I     0.00004    0.00004    0.00000
 37 I     0.23295    0.00004   -0.02790
 38 I     0.00004    0.23295   -0.02790

System changes: positions 

Initializing position-dependent things.

Density initialized from wave functions
         .------------------------------.  
        /|                              |  
       / |                              |  
      /  |                              |  
     /   |                              |  
    /    |                              |  
   /   I |     Pb     I       Pb        |  
  /      |                              |  
 *       |   I           Cs I           Cs 
 |       |                              |  
 | I     | Pb  I  I       Pb  I         |  
 |       |                              |  
 |       I           Cs I           Cs  |  
 |       |                              |  
 |     I | I   Pb     I   I   Pb        |  
 |       |                              |  
 |       .---I-----------Cs-I----------Cs  
 |      /                              /   
 | I   /   Pb  I  I       Pb  I       /    
 |    /                              /     
 |   /   I           Cs I           /s     
 |  /                              /       
 | /                      I       /        
 |/                              /         
 *------------------------------*          

Atomic positions and initial magnetic moments

Positions:
   0 Cs    -0.219267   -0.219267   -0.000000    ( 0.0000,  0.0000,  0.0000)
   1 Pb     3.194985    3.194985    3.337241    ( 0.0000,  0.0000,  0.0000)
   2 I      0.045013    3.195008    3.079881    ( 0.0000,  0.0000,  0.0000)
   3 I      3.195008    0.045013    3.079881    ( 0.0000,  0.0000,  0.0000)
   4 Cs    -0.053892   -0.053892    6.390000    ( 0.0000,  0.0000,  0.0000)
   5 Pb     3.194985    3.194985    9.442759    ( 0.0000,  0.0000,  0.0000)
   6 I      3.194998    3.194998    6.390000    ( 0.0000,  0.0000,  0.0000)
   7 I      0.045013    3.195008    9.700119    ( 0.0000,  0.0000,  0.0000)
   8 I      3.195008    0.045013    9.700119    ( 0.0000,  0.0000,  0.0000)
   9 Cs    -0.219275    6.609284    0.000000    ( 0.0000,  0.0000,  0.0000)
  10 Pb     3.194983    9.585026    3.189141    ( 0.0000,  0.0000,  0.0000)
  11 I      3.195007    9.584973    0.000000    ( 0.0000,  0.0000,  0.0000)
  12 I      0.006613    9.584994    3.189180    ( 0.0000,  0.0000,  0.0000)
  13 I      3.195008    6.344996    3.079924    ( 0.0000,  0.0000,  0.0000)
  14 Cs    -0.053887    6.443891    6.390000    ( 0.0000,  0.0000,  0.0000)
  15 Pb     3.194983    9.585026    9.590859    ( 0.0000,  0.0000,  0.0000)
  16 I      3.195005    9.585019    6.390000    ( 0.0000,  0.0000,  0.0000)
  17 I      0.006613    9.584994    9.590820    ( 0.0000,  0.0000,  0.0000)
  18 I      3.195008    6.344996    9.700076    ( 0.0000,  0.0000,  0.0000)
  19 Cs     6.609284   -0.219275    0.000000    ( 0.0000,  0.0000,  0.0000)
  20 Pb     9.585026    3.194983    3.189141    ( 0.0000,  0.0000,  0.0000)
  21 I      9.584973    3.195007   -0.000000    ( 0.0000,  0.0000,  0.0000)
  22 I      6.344996    3.195008    3.079924    ( 0.0000,  0.0000,  0.0000)
  23 I      9.584994    0.006613    3.189180    ( 0.0000,  0.0000,  0.0000)
  24 Cs     6.443891   -0.053887    6.390000    ( 0.0000,  0.0000,  0.0000)
  25 Pb     9.585026    3.194983    9.590859    ( 0.0000,  0.0000,  0.0000)
  26 I      9.585019    3.195005    6.390000    ( 0.0000,  0.0000,  0.0000)
  27 I      6.344996    3.195008    9.700076    ( 0.0000,  0.0000,  0.0000)
  28 I      9.584994    0.006613    9.590820    ( 0.0000,  0.0000,  0.0000)
  29 Cs     6.609291    6.609291    0.000000    ( 0.0000,  0.0000,  0.0000)
  30 Pb     9.585018    9.585018    3.216953    ( 0.0000,  0.0000,  0.0000)
  31 I      9.584989    9.584989    0.000000    ( 0.0000,  0.0000,  0.0000)
  32 I      6.383388    9.584995    3.189184    ( 0.0000,  0.0000,  0.0000)
  33 I      9.584995    6.383388    3.189184    ( 0.0000,  0.0000,  0.0000)
  34 Cs     6.443886    6.443886    6.390000    ( 0.0000,  0.0000,  0.0000)
  35 Pb     9.585018    9.585018    9.563047    ( 0.0000,  0.0000,  0.0000)
  36 I      9.584999    9.584999    6.390000    ( 0.0000,  0.0000,  0.0000)
  37 I      6.383388    9.584995    9.590816    ( 0.0000,  0.0000,  0.0000)
  38 I      9.584995    6.383388    9.590816    ( 0.0000,  0.0000,  0.0000)

Unit cell:
           periodic     x           y           z      points  spacing
  1. axis:    yes   12.780000    0.000000    0.000000    75     0.1704
  2. axis:    yes    0.000000   12.780000    0.000000    75     0.1704
  3. axis:    yes    0.000000    0.000000   12.780000    75     0.1704

  Lengths:  12.780000  12.780000  12.780000
  Angles:   90.000000  90.000000  90.000000

Effective grid spacing dv^(1/3) = 0.1704

     iter     time        total  log10-change:
                         energy   eigst   dens
iter:   1 01:24:49  -113.997634   -1.69
iter:   2 01:25:17  -113.944177   -2.95  -2.11
iter:   3 01:25:45  -113.796572   -3.00  -2.16
iter:   4 01:26:13  -113.793676c  -4.54  -2.71
iter:   5 01:26:41  -113.795105c  -4.43  -2.73
iter:   6 01:27:09  -113.789513c  -4.49  -2.80
iter:   7 01:27:37  -113.788994c  -5.14  -3.12
iter:   8 01:28:05  -113.789024c  -6.12  -3.52
iter:   9 01:28:33  -113.788909c  -6.39  -3.58
iter:  10 01:29:01  -113.788920c  -6.48  -3.76
iter:  11 01:29:31  -113.788920c  -7.42c -3.99
iter:  12 01:29:59  -113.788923c  -7.50c -4.01c

Converged after 12 iterations.

Dipole moment: (59.346290, 59.346290, -0.000000) |e|*Ang

Energy contributions relative to reference atoms: (reference = -10684034.619125)

Kinetic:       +164.072966
Potential:     -183.326695
External:        +0.000000
XC:             -93.619443
Entropy (-ST):   -0.000159
Local:           -0.915671
SIC:             +0.000000
--------------------------
Free energy:   -113.789003
Extrapolated:  -113.788923

Showing all kpts
 Kpt  Band  Eigenvalues  Occupancy
  0   170      1.04903    1.99999
  0   171      1.14234    1.99998
  0   172      3.34087    0.00006
  0   173      3.96810    0.00000

  1   170      1.04903    1.99999
  1   171      1.14234    1.99998
  1   172      3.34087    0.00006
  1   173      3.96810    0.00000


Fermi level: 2.30416

Gap: 2.199 eV
Transition (v -> c):
  (s=0, k=1, n=171, [0.25, 0.25, 0.25]) -> (s=0, k=0, n=172, [0.25, -0.25, 0.25])
Direct/indirect transitions are different
Direct gap: 2.199 eV
Transition at: (s=0, k=0, n=171, [0.25, -0.25, 0.25])

Forces in eV/Ang:
  0 Cs   -0.02302   -0.02302    0.00000
  1 Pb    0.00010    0.00010   -0.05390
  2 I    -0.06614    0.00000   -0.02431
  3 I     0.00000   -0.06614   -0.02431
  4 Cs   -0.03456   -0.03456    0.00000
  5 Pb    0.00010    0.00010    0.05390
  6 I     0.00000    0.00000    0.00000
  7 I    -0.06614    0.00000    0.02431
  8 I     0.00000   -0.06614    0.02431
  9 Cs   -0.02302    0.02301    0.00000
 10 Pb    0.00008   -0.00007   -0.01680
 11 I     0.00000   -0.00001    0.00000
 12 I    -0.03470   -0.00000    0.00092
 13 I     0.00000    0.06613   -0.02430
 14 Cs   -0.03455    0.03456    0.00000
 15 Pb    0.00008   -0.00007    0.01680
 16 I     0.00000   -0.00000    0.00000
 17 I    -0.03470   -0.00000   -0.00092
 18 I     0.00000    0.06613    0.02430
 19 Cs    0.02301   -0.02302    0.00000
 20 Pb   -0.00007    0.00008   -0.01680
 21 I    -0.00001    0.00000    0.00000
 22 I     0.06613    0.00000   -0.02430
 23 I    -0.00000   -0.03470    0.00092
 24 Cs    0.03456   -0.03455    0.00000
 25 Pb   -0.00007    0.00008    0.01680
 26 I    -0.00000    0.00000    0.00000
 27 I     0.06613    0.00000    0.02430
 28 I    -0.00000   -0.03470   -0.00092
 29 Cs    0.02301    0.02301    0.00000
 30 Pb   -0.00008   -0.00008   -0.00094
 31 I    -0.00000   -0.00000    0.00000
 32 I     0.03470   -0.00000    0.00092
 33 I    -0.00000    0.03470    0.00092
 34 Cs    0.03455    0.03455    0.00000
 35 Pb   -0.00008   -0.00008    0.00094
 36 I    -0.00001   -0.00001    0.00000
 37 I     0.03470   -0.00000   -0.00092
 38 I    -0.00000    0.03470   -0.00092

System changes: positions 

Initializing position-dependent things.

Density initialized from wave functions
         .------------------------------.  
        /|                              |  
       / |                              |  
      /  |                              |  
     /   |                              |  
    /    |                              |  
   /   I |     Pb     I       Pb        |  
  /      |                              |  
 *       |   I           Cs I           Cs 
 |       |                              |  
 | I     | Pb  I  I       Pb  I         |  
 |       |                              |  
 |       I           Cs I           Cs  |  
 |       |                              |  
 |     I | I   Pb     I   I   Pb        |  
 |       |                              |  
 |       .---I-----------Cs-I----------Cs  
 |      /                              /   
 | I   /   Pb  I  I       Pb  I       /    
 |    /                              /     
 |   /   I           Cs I           /s     
 |  /                              /       
 | /                      I       /        
 |/                              /         
 *------------------------------*          

Atomic positions and initial magnetic moments

Positions:
   0 Cs    -0.222710   -0.222710   -0.000000    ( 0.0000,  0.0000,  0.0000)
   1 Pb     3.194984    3.194984    3.341183    ( 0.0000,  0.0000,  0.0000)
   2 I      0.046156    3.195007    3.076555    ( 0.0000,  0.0000,  0.0000)
   3 I      3.195007    0.046156    3.076555    ( 0.0000,  0.0000,  0.0000)
   4 Cs    -0.057265   -0.057265    6.390000    ( 0.0000,  0.0000,  0.0000)
   5 Pb     3.194984    3.194984    9.438817    ( 0.0000,  0.0000,  0.0000)
   6 I      3.194997    3.194997    6.390000    ( 0.0000,  0.0000,  0.0000)
   7 I      0.046156    3.195007    9.703445    ( 0.0000,  0.0000,  0.0000)
   8 I      3.195007    0.046156    9.703445    ( 0.0000,  0.0000,  0.0000)
   9 Cs    -0.222717    6.612727    0.000000    ( 0.0000,  0.0000,  0.0000)
  10 Pb     3.194981    9.585029    3.189167    ( 0.0000,  0.0000,  0.0000)
  11 I      3.195006    9.584973    0.000000    ( 0.0000,  0.0000,  0.0000)
  12 I      0.007455    9.584995    3.188815    ( 0.0000,  0.0000,  0.0000)
  13 I      3.195007    6.343854    3.076598    ( 0.0000,  0.0000,  0.0000)
  14 Cs    -0.057260    6.447264    6.390000    ( 0.0000,  0.0000,  0.0000)
  15 Pb     3.194981    9.585029    9.590833    ( 0.0000,  0.0000,  0.0000)
  16 I      3.195004    9.585020    6.390000    ( 0.0000,  0.0000,  0.0000)
  17 I      0.007455    9.584995    9.591185    ( 0.0000,  0.0000,  0.0000)
  18 I      3.195007    6.343854    9.703402    ( 0.0000,  0.0000,  0.0000)
  19 Cs     6.612727   -0.222717   -0.000000    ( 0.0000,  0.0000,  0.0000)
  20 Pb     9.585029    3.194981    3.189167    ( 0.0000,  0.0000,  0.0000)
  21 I      9.584973    3.195006   -0.000000    ( 0.0000,  0.0000,  0.0000)
  22 I      6.343854    3.195007    3.076598    ( 0.0000,  0.0000,  0.0000)
  23 I      9.584995    0.007455    3.188815    ( 0.0000,  0.0000,  0.0000)
  24 Cs     6.447264   -0.057260    6.390000    ( 0.0000,  0.0000,  0.0000)
  25 Pb     9.585029    3.194981    9.590833    ( 0.0000,  0.0000,  0.0000)
  26 I      9.585020    3.195004    6.390000    ( 0.0000,  0.0000,  0.0000)
  27 I      6.343854    3.195007    9.703402    ( 0.0000,  0.0000,  0.0000)
  28 I      9.584995    0.007455    9.591185    ( 0.0000,  0.0000,  0.0000)
  29 Cs     6.612734    6.612734    0.000000    ( 0.0000,  0.0000,  0.0000)
  30 Pb     9.585020    9.585020    3.217106    ( 0.0000,  0.0000,  0.0000)
  31 I      9.584990    9.584990    0.000000    ( 0.0000,  0.0000,  0.0000)
  32 I      6.382546    9.584995    3.188819    ( 0.0000,  0.0000,  0.0000)
  33 I      9.584995    6.382546    3.188819    ( 0.0000,  0.0000,  0.0000)
  34 Cs     6.447259    6.447259    6.390000    ( 0.0000,  0.0000,  0.0000)
  35 Pb     9.585020    9.585020    9.562894    ( 0.0000,  0.0000,  0.0000)
  36 I      9.584999    9.584999    6.390000    ( 0.0000,  0.0000,  0.0000)
  37 I      6.382546    9.584995    9.591181    ( 0.0000,  0.0000,  0.0000)
  38 I      9.584995    6.382546    9.591181    ( 0.0000,  0.0000,  0.0000)

Unit cell:
           periodic     x           y           z      points  spacing
  1. axis:    yes   12.780000    0.000000    0.000000    75     0.1704
  2. axis:    yes    0.000000   12.780000    0.000000    75     0.1704
  3. axis:    yes    0.000000    0.000000   12.780000    75     0.1704

  Lengths:  12.780000  12.780000  12.780000
  Angles:   90.000000  90.000000  90.000000

Effective grid spacing dv^(1/3) = 0.1704

     iter     time        total  log10-change:
                         energy   eigst   dens
iter:   1 01:30:41  -113.789699   -4.86
iter:   2 01:31:09  -113.789605   -6.23  -3.57
iter:   3 01:31:37  -113.789391c  -5.92  -3.62
iter:   4 01:32:06  -113.789383c  -7.39  -4.18c
iter:   5 01:32:34  -113.789381c  -7.75c -4.26c

Converged after 5 iterations.

Dipole moment: (60.422018, 60.422018, -0.000000) |e|*Ang

Energy contributions relative to reference atoms: (reference = -10684034.619125)

Kinetic:       +164.381812
Potential:     -183.554682
External:        +0.000000
XC:             -93.641729
Entropy (-ST):   -0.000150
Local:           -0.974706
SIC:             +0.000000
--------------------------
Free energy:   -113.789456
Extrapolated:  -113.789381

Showing all kpts
 Kpt  Band  Eigenvalues  Occupancy
  0   170      1.04938    1.99999
  0   171      1.14355    1.99998
  0   172      3.35333    0.00006
  0   173      3.96857    0.00000

  1   170      1.04938    1.99999
  1   171      1.14355    1.99998
  1   172      3.35333    0.00006
  1   173      3.96857    0.00000


Fermi level: 2.31025

Gap: 2.210 eV
Transition (v -> c):
  (s=0, k=1, n=171, [0.25, 0.25, 0.25]) -> (s=0, k=0, n=172, [0.25, -0.25, 0.25])
Direct/indirect transitions are different
Direct gap: 2.210 eV
Transition at: (s=0, k=0, n=171, [0.25, -0.25, 0.25])

Forces in eV/Ang:
  0 Cs   -0.01236   -0.01236    0.00000
  1 Pb    0.00007    0.00007   -0.11313
  2 I    -0.05150   -0.00002   -0.03129
  3 I    -0.00002   -0.05150   -0.03129
  4 Cs   -0.02900   -0.02900    0.00000
  5 Pb    0.00007    0.00007    0.11313
  6 I    -0.00002   -0.00002    0.00000
  7 I    -0.05150   -0.00002    0.03129
  8 I    -0.00002   -0.05150    0.03129
  9 Cs   -0.01236    0.01235    0.00000
 10 Pb    0.00005   -0.00003   -0.02418
 11 I    -0.00002    0.00001    0.00000
 12 I    -0.04398    0.00002    0.00014
 13 I    -0.00002    0.05148   -0.03128
 14 Cs   -0.02900    0.02900    0.00000
 15 Pb    0.00005   -0.00003    0.02418
 16 I    -0.00002    0.00002    0.00000
 17 I    -0.04398    0.00002   -0.00014
 18 I    -0.00002    0.05148    0.03128
 19 Cs    0.01235   -0.01236    0.00000
 20 Pb   -0.00003    0.00005   -0.02418
 21 I     0.00001   -0.00002    0.00000
 22 I     0.05148   -0.00002   -0.03128
 23 I     0.00002   -0.04398    0.00014
 24 Cs    0.02900   -0.02900    0.00000
 25 Pb   -0.00003    0.00005    0.02418
 26 I     0.00002   -0.00002    0.00000
 27 I     0.05148   -0.00002    0.03128
 28 I     0.00002   -0.04398   -0.00014
 29 Cs    0.01235    0.01235    0.00000
 30 Pb   -0.00004   -0.00004   -0.00767
 31 I     0.00002    0.00002    0.00000
 32 I     0.04398    0.00002    0.00014
 33 I     0.00002    0.04398    0.00014
 34 Cs    0.02900    0.02900    0.00000
 35 Pb   -0.00004   -0.00004    0.00767
 36 I     0.00002    0.00002    0.00000
 37 I     0.04398    0.00002   -0.00014
 38 I     0.00002    0.04398   -0.00014

System changes: positions 

Initializing position-dependent things.

Density initialized from wave functions
         .------------------------------.  
        /|                              |  
       / |                              |  
      /  |                              |  
     /   |                              |  
    /    |                              |  
   /   I |     Pb     I       Pb        |  
  /      |                              |  
 *       |   I           Cs I           Cs 
 |       |                              |  
 | I     | Pb  I  I       Pb  I         |  
 |       |                              |  
 |       I           Cs I           Cs  |  
 |       |                              |  
 |     I | I   Pb     I   I   Pb        |  
 |       |                              |  
 |       .---I-----------Cs-I----------Cs  
 |      /                              /   
 | I   /   Pb  I  I       Pb  I       /    
 |    /                              /     
 |   /   I           Cs I           /s     
 |  /                              /       
 | /                      I       /        
 |/                              /         
 *------------------------------*          

Atomic positions and initial magnetic moments

Positions:
   0 Cs    -0.225290   -0.225290   -0.000000    ( 0.0000,  0.0000,  0.0000)
   1 Pb     3.194983    3.194983    3.342176    ( 0.0000,  0.0000,  0.0000)
   2 I      0.046505    3.195006    3.073643    ( 0.0000,  0.0000,  0.0000)
   3 I      3.195006    0.046505    3.073643    ( 0.0000,  0.0000,  0.0000)
   4 Cs    -0.060125   -0.060125    6.390000    ( 0.0000,  0.0000,  0.0000)
   5 Pb     3.194983    3.194983    9.437824    ( 0.0000,  0.0000,  0.0000)
   6 I      3.194995    3.194995    6.390000    ( 0.0000,  0.0000,  0.0000)
   7 I      0.046505    3.195006    9.706357    ( 0.0000,  0.0000,  0.0000)
   8 I      3.195006    0.046505    9.706357    ( 0.0000,  0.0000,  0.0000)
   9 Cs    -0.225297    6.615307    0.000000    ( 0.0000,  0.0000,  0.0000)
  10 Pb     3.194980    9.585031    3.188754    ( 0.0000,  0.0000,  0.0000)
  11 I      3.195005    9.584974    0.000000    ( 0.0000,  0.0000,  0.0000)
  12 I      0.007997    9.584996    3.188621    ( 0.0000,  0.0000,  0.0000)
  13 I      3.195005    6.343506    3.073687    ( 0.0000,  0.0000,  0.0000)
  14 Cs    -0.060120    6.450124    6.390000    ( 0.0000,  0.0000,  0.0000)
  15 Pb     3.194980    9.585031    9.591246    ( 0.0000,  0.0000,  0.0000)
  16 I      3.195003    9.585021    6.390000    ( 0.0000,  0.0000,  0.0000)
  17 I      0.007997    9.584996    9.591379    ( 0.0000,  0.0000,  0.0000)
  18 I      3.195005    6.343506    9.706313    ( 0.0000,  0.0000,  0.0000)
  19 Cs     6.615307   -0.225297   -0.000000    ( 0.0000,  0.0000,  0.0000)
  20 Pb     9.585031    3.194980    3.188754    ( 0.0000,  0.0000,  0.0000)
  21 I      9.584974    3.195005   -0.000000    ( 0.0000,  0.0000,  0.0000)
  22 I      6.343506    3.195005    3.073687    ( 0.0000,  0.0000,  0.0000)
  23 I      9.584996    0.007997    3.188621    ( 0.0000,  0.0000,  0.0000)
  24 Cs     6.450124   -0.060120    6.390000    ( 0.0000,  0.0000,  0.0000)
  25 Pb     9.585031    3.194980    9.591246    ( 0.0000,  0.0000,  0.0000)
  26 I      9.585021    3.195003    6.390000    ( 0.0000,  0.0000,  0.0000)
  27 I      6.343506    3.195005    9.706313    ( 0.0000,  0.0000,  0.0000)
  28 I      9.584996    0.007997    9.591379    ( 0.0000,  0.0000,  0.0000)
  29 Cs     6.615313    6.615313    0.000000    ( 0.0000,  0.0000,  0.0000)
  30 Pb     9.585021    9.585021    3.217322    ( 0.0000,  0.0000,  0.0000)
  31 I      9.584991    9.584991    0.000000    ( 0.0000,  0.0000,  0.0000)
  32 I      6.382003    9.584996    3.188625    ( 0.0000,  0.0000,  0.0000)
  33 I      9.584996    6.382003    3.188625    ( 0.0000,  0.0000,  0.0000)
  34 Cs     6.450119    6.450119    6.390000    ( 0.0000,  0.0000,  0.0000)
  35 Pb     9.585021    9.585021    9.562678    ( 0.0000,  0.0000,  0.0000)
  36 I      9.585000    9.585000    6.390000    ( 0.0000,  0.0000,  0.0000)
  37 I      6.382003    9.584996    9.591375    ( 0.0000,  0.0000,  0.0000)
  38 I      9.584996    6.382003    9.591375    ( 0.0000,  0.0000,  0.0000)

Unit cell:
           periodic     x           y           z      points  spacing
  1. axis:    yes   12.780000    0.000000    0.000000    75     0.1704
  2. axis:    yes    0.000000   12.780000    0.000000    75     0.1704
  3. axis:    yes    0.000000    0.000000   12.780000    75     0.1704

  Lengths:  12.780000  12.780000  12.780000
  Angles:   90.000000  90.000000  90.000000

Effective grid spacing dv^(1/3) = 0.1704

     iter     time        total  log10-change:
                         energy   eigst   dens
iter:   1 01:33:17  -113.790389   -5.44
iter:   2 01:33:49  -113.790382   -6.72  -4.01c
iter:   3 01:34:17  -113.790364c  -6.70  -4.05c
iter:   4 01:34:45  -113.790363c  -8.20c -4.55c

Converged after 4 iterations.

Dipole moment: (61.436941, 61.436941, -0.000000) |e|*Ang

Energy contributions relative to reference atoms: (reference = -10684034.619125)

Kinetic:       +164.449285
Potential:     -183.621293
External:        +0.000000
XC:             -93.652697
Entropy (-ST):   -0.000147
Local:           -0.965584
SIC:             +0.000000
--------------------------
Free energy:   -113.790437
Extrapolated:  -113.790363

Showing all kpts
 Kpt  Band  Eigenvalues  Occupancy
  0   170      1.05009    1.99999
  0   171      1.14452    1.99998
  0   172      3.35719    0.00006
  0   173      3.96879    0.00000

  1   170      1.05009    1.99999
  1   171      1.14452    1.99998
  1   172      3.35719    0.00006
  1   173      3.96879    0.00000


Fermi level: 2.31221

Gap: 2.213 eV
Transition (v -> c):
  (s=0, k=1, n=171, [0.25, 0.25, 0.25]) -> (s=0, k=0, n=172, [0.25, -0.25, 0.25])
Direct/indirect transitions are different
Direct gap: 2.213 eV
Transition at: (s=0, k=0, n=171, [0.25, -0.25, 0.25])

Forces in eV/Ang:
  0 Cs   -0.01149   -0.01149    0.00000
  1 Pb    0.00009    0.00009   -0.10750
  2 I    -0.06092   -0.00001   -0.02831
  3 I    -0.00001   -0.06092   -0.02831
  4 Cs   -0.02801   -0.02801    0.00000
  5 Pb    0.00009    0.00009    0.10750
  6 I    -0.00001   -0.00001    0.00000
  7 I    -0.06092   -0.00001    0.02831
  8 I    -0.00001   -0.06092    0.02831
  9 Cs   -0.01148    0.01148    0.00000
 10 Pb    0.00007   -0.00005   -0.02107
 11 I    -0.00001    0.00001    0.00000
 12 I    -0.04850    0.00001    0.00256
 13 I    -0.00001    0.06090   -0.02829
 14 Cs   -0.02801    0.02801    0.00000
 15 Pb    0.00007   -0.00005    0.02107
 16 I    -0.00001    0.00002    0.00000
 17 I    -0.04850    0.00001   -0.00256
 18 I    -0.00001    0.06090    0.02829
 19 Cs    0.01148   -0.01148    0.00000
 20 Pb   -0.00005    0.00007   -0.02107
 21 I     0.00001   -0.00001    0.00000
 22 I     0.06090   -0.00001   -0.02829
 23 I     0.00001   -0.04850    0.00256
 24 Cs    0.02801   -0.02801    0.00000
 25 Pb   -0.00005    0.00007    0.02107
 26 I     0.00002   -0.00001    0.00000
 27 I     0.06090   -0.00001    0.02829
 28 I     0.00001   -0.04850   -0.00256
 29 Cs    0.01148    0.01148    0.00000
 30 Pb   -0.00006   -0.00006   -0.00579
 31 I     0.00002    0.00002    0.00000
 32 I     0.04849    0.00001    0.00256
 33 I     0.00001    0.04849    0.00256
 34 Cs    0.02800    0.02800    0.00000
 35 Pb   -0.00006   -0.00006    0.00579
 36 I     0.00001    0.00001    0.00000
 37 I     0.04849    0.00001   -0.00256
 38 I     0.00001    0.04849   -0.00256

System changes: positions 

Initializing position-dependent things.

Density initialized from wave functions
         .------------------------------.  
        /|                              |  
       / |                              |  
      /  |                              |  
     /   |                              |  
    /    |                              |  
   /   I |     Pb     I       Pb        |  
  /      |                              |  
 *       |   I           Cs I           Cs 
 |       |                              |  
 | I     | Pb  I  I       Pb  I         |  
 |       |                              |  
 |       I           Cs I           Cs  |  
 |       |                              |  
 |     I | I   Pb     I   I   Pb        |  
 |       |                              |  
 |       .---I-----------Cs-I----------Cs  
 |      /                              /   
 | I   /   Pb  I  I       Pb  I       /    
 |    /                              /     
 |   /   I           Cs I           /s     
 |  /                              /       
 | /                      I       /        
 |/                              /         
 *------------------------------*          

Atomic positions and initial magnetic moments

Positions:
   0 Cs    -0.244808   -0.244808   -0.000000    ( 0.0000,  0.0000,  0.0000)
   1 Pb     3.194980    3.194980    3.343786    ( 0.0000,  0.0000,  0.0000)
   2 I      0.045515    3.194993    3.050647    ( 0.0000,  0.0000,  0.0000)
   3 I      3.194993    0.045515    3.050647    ( 0.0000,  0.0000,  0.0000)
   4 Cs    -0.083003   -0.083003    6.390000    ( 0.0000,  0.0000,  0.0000)
   5 Pb     3.194980    3.194980    9.436214    ( 0.0000,  0.0000,  0.0000)
   6 I      3.194978    3.194978    6.390000    ( 0.0000,  0.0000,  0.0000)
   7 I      0.045515    3.194993    9.729353    ( 0.0000,  0.0000,  0.0000)
   8 I      3.194993    0.045515    9.729353    ( 0.0000,  0.0000,  0.0000)
   9 Cs    -0.244814    6.634824   -0.000000    ( 0.0000,  0.0000,  0.0000)
  10 Pb     3.194971    9.585053    3.184356    ( 0.0000,  0.0000,  0.0000)
  11 I      3.194995    9.584980   -0.000000    ( 0.0000,  0.0000,  0.0000)
  12 I      0.011798    9.585007    3.187835    ( 0.0000,  0.0000,  0.0000)
  13 I      3.194992    6.344499    3.050694    ( 0.0000,  0.0000,  0.0000)
  14 Cs    -0.082998    6.473004    6.390000    ( 0.0000,  0.0000,  0.0000)
  15 Pb     3.194971    9.585053    9.595644    ( 0.0000,  0.0000,  0.0000)
  16 I      3.194990    9.585035    6.390000    ( 0.0000,  0.0000,  0.0000)
  17 I      0.011798    9.585007    9.592165    ( 0.0000,  0.0000,  0.0000)
  18 I      3.194992    6.344499    9.729306    ( 0.0000,  0.0000,  0.0000)
  19 Cs     6.634824   -0.244814   -0.000000    ( 0.0000,  0.0000,  0.0000)
  20 Pb     9.585053    3.194971    3.184356    ( 0.0000,  0.0000,  0.0000)
  21 I      9.584980    3.194995    0.000000    ( 0.0000,  0.0000,  0.0000)
  22 I      6.344499    3.194992    3.050694    ( 0.0000,  0.0000,  0.0000)
  23 I      9.585007    0.011798    3.187835    ( 0.0000,  0.0000,  0.0000)
  24 Cs     6.473004   -0.082998    6.390000    ( 0.0000,  0.0000,  0.0000)
  25 Pb     9.585053    3.194971    9.595644    ( 0.0000,  0.0000,  0.0000)
  26 I      9.585035    3.194990    6.390000    ( 0.0000,  0.0000,  0.0000)
  27 I      6.344499    3.194992    9.729306    ( 0.0000,  0.0000,  0.0000)
  28 I      9.585007    0.011798    9.592165    ( 0.0000,  0.0000,  0.0000)
  29 Cs     6.634831    6.634831   -0.000000    ( 0.0000,  0.0000,  0.0000)
  30 Pb     9.585032    9.585032    3.219907    ( 0.0000,  0.0000,  0.0000)
  31 I      9.585005    9.585005   -0.000000    ( 0.0000,  0.0000,  0.0000)
  32 I      6.378203    9.585007    3.187840    ( 0.0000,  0.0000,  0.0000)
  33 I      9.585007    6.378203    3.187840    ( 0.0000,  0.0000,  0.0000)
  34 Cs     6.472999    6.472999    6.390000    ( 0.0000,  0.0000,  0.0000)
  35 Pb     9.585032    9.585032    9.560093    ( 0.0000,  0.0000,  0.0000)
  36 I      9.585011    9.585011    6.390000    ( 0.0000,  0.0000,  0.0000)
  37 I      6.378203    9.585007    9.592160    ( 0.0000,  0.0000,  0.0000)
  38 I      9.585007    6.378203    9.592160    ( 0.0000,  0.0000,  0.0000)

Unit cell:
           periodic     x           y           z      points  spacing
  1. axis:    yes   12.780000    0.000000    0.000000    75     0.1704
  2. axis:    yes    0.000000   12.780000    0.000000    75     0.1704
  3. axis:    yes    0.000000    0.000000   12.780000    75     0.1704

  Lengths:  12.780000  12.780000  12.780000
  Angles:   90.000000  90.000000  90.000000

Effective grid spacing dv^(1/3) = 0.1704

     iter     time        total  log10-change:
                         energy   eigst   dens
iter:   1 01:35:28  -113.799908   -3.74
iter:   2 01:35:57  -113.799268   -5.04  -3.03
iter:   3 01:36:26  -113.797702c  -4.67  -3.07
iter:   4 01:36:54  -113.797554c  -6.00  -3.57
iter:   5 01:37:22  -113.797557c  -6.28  -3.60
iter:   6 01:37:50  -113.797493c  -6.33  -3.70
iter:   7 01:38:19  -113.797494c  -7.04  -4.00
iter:   8 01:38:46  -113.797494c  -7.92c -4.25c

Converged after 8 iterations.

Dipole moment: (69.965695, 69.965695, -0.000000) |e|*Ang

Energy contributions relative to reference atoms: (reference = -10684034.619125)

Kinetic:       +164.622852
Potential:     -183.783752
External:        +0.000000
XC:             -93.677224
Entropy (-ST):   -0.000132
Local:           -0.959303
SIC:             +0.000000
--------------------------
Free energy:   -113.797560
Extrapolated:  -113.797494

Showing all kpts
 Kpt  Band  Eigenvalues  Occupancy
  0   170      1.05599    1.99999
  0   171      1.15342    1.99998
  0   172      3.38207    0.00005
  0   173      3.96898    0.00000

  1   170      1.05599    1.99999
  1   171      1.15342    1.99998
  1   172      3.38207    0.00005
  1   173      3.96898    0.00000


Fermi level: 2.32539

Gap: 2.229 eV
Transition (v -> c):
  (s=0, k=1, n=171, [0.25, 0.25, 0.25]) -> (s=0, k=0, n=172, [0.25, -0.25, 0.25])
Direct/indirect transitions are different
Direct gap: 2.229 eV
Transition at: (s=0, k=0, n=171, [0.25, -0.25, 0.25])

Forces in eV/Ang:
  0 Cs   -0.00081   -0.00081    0.00000
  1 Pb    0.00015    0.00015   -0.11843
  2 I    -0.05540   -0.00001   -0.00866
  3 I    -0.00001   -0.05540   -0.00866
  4 Cs   -0.02507   -0.02507    0.00000
  5 Pb    0.00015    0.00015    0.11843
  6 I    -0.00001   -0.00001    0.00000
  7 I    -0.05540   -0.00001    0.00866
  8 I    -0.00001   -0.05540    0.00866
  9 Cs   -0.00081    0.00080    0.00000
 10 Pb    0.00012   -0.00011   -0.00423
 11 I    -0.00000    0.00001    0.00000
 12 I    -0.08862    0.00001    0.00958
 13 I    -0.00000    0.05538   -0.00863
 14 Cs   -0.02506    0.02506    0.00000
 15 Pb    0.00012   -0.00011    0.00423
 16 I    -0.00001    0.00002    0.00000
 17 I    -0.08862    0.00001   -0.00958
 18 I    -0.00000    0.05538    0.00863
 19 Cs    0.00080   -0.00081    0.00000
 20 Pb   -0.00011    0.00012   -0.00423
 21 I     0.00001   -0.00000    0.00000
 22 I     0.05538   -0.00000   -0.00863
 23 I     0.00001   -0.08862    0.00958
 24 Cs    0.02506   -0.02506    0.00000
 25 Pb   -0.00011    0.00012    0.00423
 26 I     0.00002   -0.00001    0.00000
 27 I     0.05538   -0.00000    0.00863
 28 I     0.00001   -0.08862   -0.00958
 29 Cs    0.00080    0.00080    0.00000
 30 Pb   -0.00011   -0.00011   -0.01674
 31 I     0.00000    0.00000    0.00000
 32 I     0.08861    0.00001    0.00958
 33 I     0.00001    0.08861    0.00958
 34 Cs    0.02506    0.02506    0.00000
 35 Pb   -0.00011   -0.00011    0.01674
 36 I     0.00000    0.00000    0.00000
 37 I     0.08861    0.00001   -0.00958
 38 I     0.00001    0.08861   -0.00958

System changes: positions 

Initializing position-dependent things.

Density initialized from wave functions
         .------------------------------.  
        /|                              |  
       / |                              |  
      /  |                              |  
     /   |                              |  
    /    |                              |  
   /   I |     Pb     I       Pb        |  
  /      |                              |  
 *       |   I           Cs I           Cs 
 |       |                              |  
 | I     | Pb  I  I       Pb  I         |  
 |       |                              |  
 |       I           Cs I           Cs  |  
 |       |                              |  
 |     I | I   Pb     I   I   Pb        |  
 |       |                              |  
 |       .---I-----------Cs-I----------Cs  
 |      /                              /   
 | I   /   Pb  I  I       Pb  I       /    
 |    /                              /     
 |   /   I           Cs I           /s     
 |  /                              /       
 | /                      I       /        
 |/                              /         
 *------------------------------*          

Atomic positions and initial magnetic moments

Positions:
   0 Cs    -0.254209   -0.254209   -0.000000    ( 0.0000,  0.0000,  0.0000)
   1 Pb     3.194981    3.194981    3.337667    ( 0.0000,  0.0000,  0.0000)
   2 I      0.042224    3.194984    3.038557    ( 0.0000,  0.0000,  0.0000)
   3 I      3.194984    0.042224    3.038557    ( 0.0000,  0.0000,  0.0000)
   4 Cs    -0.095498   -0.095498    6.390000    ( 0.0000,  0.0000,  0.0000)
   5 Pb     3.194981    3.194981    9.442333    ( 0.0000,  0.0000,  0.0000)
   6 I      3.194967    3.194967    6.390000    ( 0.0000,  0.0000,  0.0000)
   7 I      0.042224    3.194984    9.741443    ( 0.0000,  0.0000,  0.0000)
   8 I      3.194984    0.042224    9.741443    ( 0.0000,  0.0000,  0.0000)
   9 Cs    -0.254214    6.644225   -0.000000    ( 0.0000,  0.0000,  0.0000)
  10 Pb     3.194969    9.585065    3.180942    ( 0.0000,  0.0000,  0.0000)
  11 I      3.194987    9.584985   -0.000000    ( 0.0000,  0.0000,  0.0000)
  12 I      0.012819    9.585014    3.188050    ( 0.0000,  0.0000,  0.0000)
  13 I      3.194983    6.347791    3.038607    ( 0.0000,  0.0000,  0.0000)
  14 Cs    -0.095493    6.485501    6.390000    ( 0.0000,  0.0000,  0.0000)
  15 Pb     3.194969    9.585065    9.599058    ( 0.0000,  0.0000,  0.0000)
  16 I      3.194982    9.585044    6.390000    ( 0.0000,  0.0000,  0.0000)
  17 I      0.012819    9.585014    9.591950    ( 0.0000,  0.0000,  0.0000)
  18 I      3.194983    6.347791    9.741393    ( 0.0000,  0.0000,  0.0000)
  19 Cs     6.644225   -0.254214   -0.000000    ( 0.0000,  0.0000,  0.0000)
  20 Pb     9.585065    3.194969    3.180942    ( 0.0000,  0.0000,  0.0000)
  21 I      9.584985    3.194987    0.000000    ( 0.0000,  0.0000,  0.0000)
  22 I      6.347791    3.194983    3.038607    ( 0.0000,  0.0000,  0.0000)
  23 I      9.585014    0.012819    3.188050    ( 0.0000,  0.0000,  0.0000)
  24 Cs     6.485501   -0.095493    6.390000    ( 0.0000,  0.0000,  0.0000)
  25 Pb     9.585065    3.194969    9.599058    ( 0.0000,  0.0000,  0.0000)
  26 I      9.585044    3.194982    6.390000    ( 0.0000,  0.0000,  0.0000)
  27 I      6.347791    3.194983    9.741393    ( 0.0000,  0.0000,  0.0000)
  28 I      9.585014    0.012819    9.591950    ( 0.0000,  0.0000,  0.0000)
  29 Cs     6.644231    6.644231   -0.000000    ( 0.0000,  0.0000,  0.0000)
  30 Pb     9.585035    9.585035    3.221701    ( 0.0000,  0.0000,  0.0000)
  31 I      9.585014    9.585014    0.000000    ( 0.0000,  0.0000,  0.0000)
  32 I      6.377182    9.585015    3.188054    ( 0.0000,  0.0000,  0.0000)
  33 I      9.585015    6.377182    3.188054    ( 0.0000,  0.0000,  0.0000)
  34 Cs     6.485496    6.485496    6.390000    ( 0.0000,  0.0000,  0.0000)
  35 Pb     9.585035    9.585035    9.558299    ( 0.0000,  0.0000,  0.0000)
  36 I      9.585018    9.585018    6.390000    ( 0.0000,  0.0000,  0.0000)
  37 I      6.377182    9.585015    9.591946    ( 0.0000,  0.0000,  0.0000)
  38 I      9.585015    6.377182    9.591946    ( 0.0000,  0.0000,  0.0000)

Unit cell:
           periodic     x           y           z      points  spacing
  1. axis:    yes   12.780000    0.000000    0.000000    75     0.1704
  2. axis:    yes    0.000000   12.780000    0.000000    75     0.1704
  3. axis:    yes    0.000000    0.000000   12.780000    75     0.1704

  Lengths:  12.780000  12.780000  12.780000
  Angles:   90.000000  90.000000  90.000000

Effective grid spacing dv^(1/3) = 0.1704

     iter     time        total  log10-change:
                         energy   eigst   dens
iter:   1 01:39:28  -113.802744   -4.09
iter:   2 01:39:56  -113.802516   -5.37  -3.27
iter:   3 01:40:24  -113.801952c  -5.18  -3.32
iter:   4 01:40:52  -113.801935c  -6.53  -3.78
iter:   5 01:41:20  -113.801945c  -6.66  -3.78
iter:   6 01:41:48  -113.801916c  -6.53  -3.93
iter:   7 01:42:18  -113.801915c  -7.54c -4.21c

Converged after 7 iterations.

Dipole moment: (75.018726, 75.018726, -0.000000) |e|*Ang

Energy contributions relative to reference atoms: (reference = -10684034.619125)

Kinetic:       +164.357345
Potential:     -183.555107
External:        +0.000000
XC:             -93.652415
Entropy (-ST):   -0.000132
Local:           -0.951672
SIC:             +0.000000
--------------------------
Free energy:   -113.801980
Extrapolated:  -113.801915

Showing all kpts
 Kpt  Band  Eigenvalues  Occupancy
  0   170      1.05930    1.99999
  0   171      1.15692    1.99998
  0   172      3.38382    0.00005
  0   173      3.96832    0.00000

  1   170      1.05930    1.99999
  1   171      1.15692    1.99998
  1   172      3.38382    0.00005
  1   173      3.96832    0.00000


Fermi level: 2.32684

Gap: 2.227 eV
Transition (v -> c):
  (s=0, k=1, n=171, [0.25, 0.25, 0.25]) -> (s=0, k=0, n=172, [0.25, -0.25, 0.25])
Direct/indirect transitions are different
Direct gap: 2.227 eV
Transition at: (s=0, k=1, n=171, [0.25, 0.25, 0.25])

Forces in eV/Ang:
  0 Cs    0.01180    0.01180    0.00000
  1 Pb    0.00014    0.00014   -0.09845
  2 I    -0.03861   -0.00001   -0.01429
  3 I    -0.00001   -0.03861   -0.01429
  4 Cs   -0.01659   -0.01659    0.00000
  5 Pb    0.00014    0.00014    0.09845
  6 I    -0.00001   -0.00001    0.00000
  7 I    -0.03861   -0.00001    0.01429
  8 I    -0.00001   -0.03861    0.01429
  9 Cs    0.01180   -0.01180    0.00000
 10 Pb    0.00012   -0.00011   -0.00033
 11 I    -0.00001    0.00001    0.00000
 12 I    -0.09385    0.00001    0.00860
 13 I    -0.00001    0.03859   -0.01427
 14 Cs   -0.01659    0.01659    0.00000
 15 Pb    0.00012   -0.00011    0.00033
 16 I    -0.00001    0.00002    0.00000
 17 I    -0.09385    0.00001   -0.00860
 18 I    -0.00001    0.03859    0.01427
 19 Cs   -0.01180    0.01180    0.00000
 20 Pb   -0.00011    0.00012   -0.00033
 21 I     0.00001   -0.00001    0.00000
 22 I     0.03859   -0.00001   -0.01427
 23 I     0.00001   -0.09385    0.00860
 24 Cs    0.01659   -0.01659    0.00000
 25 Pb   -0.00011    0.00012    0.00033
 26 I     0.00002   -0.00001    0.00000
 27 I     0.03859   -0.00001    0.01427
 28 I     0.00001   -0.09385   -0.00860
 29 Cs   -0.01180   -0.01180    0.00000
 30 Pb   -0.00009   -0.00009   -0.03077
 31 I     0.00000    0.00000    0.00000
 32 I     0.09385    0.00001    0.00860
 33 I     0.00001    0.09385    0.00860
 34 Cs    0.01659    0.01659    0.00000
 35 Pb   -0.00009   -0.00009    0.03077
 36 I     0.00000    0.00000    0.00000
 37 I     0.09385    0.00001   -0.00860
 38 I     0.00001    0.09385   -0.00860

System changes: positions 

Initializing position-dependent things.

Density initialized from wave functions
         .------------------------------.  
        /|                              |  
       / |                              |  
      /  |                              |  
     /   |                              |  
    /    |                              |  
   /   I |     Pb     I       Pb        |  
  /      |                              |  
 *       |   I           Cs I           Cs 
 |       |                              |  
 | I     | Pb  I  I       Pb  I         |  
 |       |                              |  
 |       I           Cs I           Cs  |  
 |       |                              |  
 |     I | I   Pb     I   I   Pb        |  
 |       |                              |  
 |       .---I-----------Cs-I----------Cs  
 |      /                              /   
 | I   /   Pb  I  I       Pb  I       /    
 |    /                              /     
 |   /   I           Cs I           /s     
 |  /                              /       
 | /                      I       /        
 |/                              /         
 *------------------------------*          

Atomic positions and initial magnetic moments

Positions:
   0 Cs    -0.265292   -0.265292   -0.000000    ( 0.0000,  0.0000,  0.0000)
   1 Pb     3.194988    3.194988    3.319687    ( 0.0000,  0.0000,  0.0000)
   2 I      0.034078    3.194969    3.021798    ( 0.0000,  0.0000,  0.0000)
   3 I      3.194969    0.034078    3.021798    ( 0.0000,  0.0000,  0.0000)
   4 Cs    -0.112884   -0.112884    6.390000    ( 0.0000,  0.0000,  0.0000)
   5 Pb     3.194988    3.194988    9.460313    ( 0.0000,  0.0000,  0.0000)
   6 I      3.194948    3.194948    6.390000    ( 0.0000,  0.0000,  0.0000)
   7 I      0.034078    3.194969    9.758202    ( 0.0000,  0.0000,  0.0000)
   8 I      3.194969    0.034078    9.758202    ( 0.0000,  0.0000,  0.0000)
   9 Cs    -0.265296    6.655309   -0.000000    ( 0.0000,  0.0000,  0.0000)
  10 Pb     3.194969    9.585080    3.174741    ( 0.0000,  0.0000,  0.0000)
  11 I      3.194975    9.584994   -0.000000    ( 0.0000,  0.0000,  0.0000)
  12 I      0.012474    9.585027    3.189200    ( 0.0000,  0.0000,  0.0000)
  13 I      3.194966    6.355938    3.021853    ( 0.0000,  0.0000,  0.0000)
  14 Cs    -0.112879    6.502889    6.390000    ( 0.0000,  0.0000,  0.0000)
  15 Pb     3.194969    9.585080    9.605259    ( 0.0000,  0.0000,  0.0000)
  16 I      3.194967    9.585060    6.390000    ( 0.0000,  0.0000,  0.0000)
  17 I      0.012474    9.585027    9.590800    ( 0.0000,  0.0000,  0.0000)
  18 I      3.194966    6.355938    9.758147    ( 0.0000,  0.0000,  0.0000)
  19 Cs     6.655309   -0.265296   -0.000000    ( 0.0000,  0.0000,  0.0000)
  20 Pb     9.585080    3.194969    3.174741    ( 0.0000,  0.0000,  0.0000)
  21 I      9.584994    3.194975    0.000000    ( 0.0000,  0.0000,  0.0000)
  22 I      6.355938    3.194966    3.021853    ( 0.0000,  0.0000,  0.0000)
  23 I      9.585027    0.012474    3.189200    ( 0.0000,  0.0000,  0.0000)
  24 Cs     6.502889   -0.112879    6.390000    ( 0.0000,  0.0000,  0.0000)
  25 Pb     9.585080    3.194969    9.605259    ( 0.0000,  0.0000,  0.0000)
  26 I      9.585060    3.194967    6.390000    ( 0.0000,  0.0000,  0.0000)
  27 I      6.355938    3.194966    9.758147    ( 0.0000,  0.0000,  0.0000)
  28 I      9.585027    0.012474    9.590800    ( 0.0000,  0.0000,  0.0000)
  29 Cs     6.655315    6.655315   -0.000000    ( 0.0000,  0.0000,  0.0000)
  30 Pb     9.585038    9.585038    3.224227    ( 0.0000,  0.0000,  0.0000)
  31 I      9.585028    9.585028    0.000000    ( 0.0000,  0.0000,  0.0000)
  32 I      6.377527    9.585029    3.189204    ( 0.0000,  0.0000,  0.0000)
  33 I      9.585029    6.377527    3.189204    ( 0.0000,  0.0000,  0.0000)
  34 Cs     6.502885    6.502885    6.390000    ( 0.0000,  0.0000,  0.0000)
  35 Pb     9.585038    9.585038    9.555773    ( 0.0000,  0.0000,  0.0000)
  36 I      9.585031    9.585031    6.390000    ( 0.0000,  0.0000,  0.0000)
  37 I      6.377527    9.585029    9.590796    ( 0.0000,  0.0000,  0.0000)
  38 I      9.585029    6.377527    9.590796    ( 0.0000,  0.0000,  0.0000)

Unit cell:
           periodic     x           y           z      points  spacing
  1. axis:    yes   12.780000    0.000000    0.000000    75     0.1704
  2. axis:    yes    0.000000   12.780000    0.000000    75     0.1704
  3. axis:    yes    0.000000    0.000000   12.780000    75     0.1704

  Lengths:  12.780000  12.780000  12.780000
  Angles:   90.000000  90.000000  90.000000

Effective grid spacing dv^(1/3) = 0.1704

     iter     time        total  log10-change:
                         energy   eigst   dens
iter:   1 01:43:00  -113.808947   -3.55
iter:   2 01:43:30  -113.808478   -4.77  -3.13
iter:   3 01:43:58  -113.807176c  -4.92  -3.18
iter:   4 01:44:27  -113.807173c  -6.30  -3.57
iter:   5 01:44:56  -113.807258c  -6.02  -3.60
iter:   6 01:45:24  -113.807156c  -6.10  -3.71
iter:   7 01:45:52  -113.807152c  -7.00  -4.02c
iter:   8 01:46:20  -113.807153c  -7.95c -4.43c

Converged after 8 iterations.

Dipole moment: (82.696520, 82.696520, -0.000000) |e|*Ang

Energy contributions relative to reference atoms: (reference = -10684034.619125)

Kinetic:       +163.718165
Potential:     -183.000354
External:        +0.000000
XC:             -93.573300
Entropy (-ST):   -0.000141
Local:           -0.951594
SIC:             +0.000000
--------------------------
Free energy:   -113.807223
Extrapolated:  -113.807153

Showing all kpts
 Kpt  Band  Eigenvalues  Occupancy
  0   170      1.06331    1.99999
  0   171      1.15734    1.99998
  0   172      3.36969    0.00006
  0   173      3.96676    0.00000

  1   170      1.06331    1.99999
  1   171      1.15734    1.99998
  1   172      3.36969    0.00006
  1   173      3.96676    0.00000


Fermi level: 2.31998

Gap: 2.212 eV
Transition (v -> c):
  (s=0, k=1, n=171, [0.25, 0.25, 0.25]) -> (s=0, k=0, n=172, [0.25, -0.25, 0.25])
Direct/indirect transitions are different
Direct gap: 2.212 eV
Transition at: (s=0, k=1, n=171, [0.25, 0.25, 0.25])

Forces in eV/Ang:
  0 Cs    0.01815    0.01815    0.00000
  1 Pb    0.00012    0.00012   -0.04336
  2 I     0.00682    0.00000   -0.01164
  3 I     0.00000    0.00682   -0.01164
  4 Cs   -0.01491   -0.01491    0.00000
  5 Pb    0.00012    0.00012    0.04336
  6 I    -0.00001   -0.00001    0.00000
  7 I     0.00682    0.00000    0.01164
  8 I     0.00000    0.00682    0.01164
  9 Cs    0.01815   -0.01815    0.00000
 10 Pb    0.00010   -0.00012    0.01963
 11 I     0.00000   -0.00000    0.00000
 12 I    -0.10035    0.00000    0.00871
 13 I     0.00000   -0.00681   -0.01161
 14 Cs   -0.01491    0.01491    0.00000
 15 Pb    0.00010   -0.00012   -0.01963
 16 I     0.00000    0.00002    0.00000
 17 I    -0.10035    0.00000   -0.00871
 18 I     0.00000   -0.00681    0.01161
 19 Cs   -0.01815    0.01815    0.00000
 20 Pb   -0.00012    0.00010    0.01963
 21 I    -0.00000    0.00000    0.00000
 22 I    -0.00681    0.00000   -0.01161
 23 I     0.00000   -0.10035    0.00871
 24 Cs    0.01491   -0.01491    0.00000
 25 Pb   -0.00012    0.00010   -0.01963
 26 I     0.00002    0.00000    0.00000
 27 I    -0.00681    0.00000    0.01161
 28 I     0.00000   -0.10035   -0.00871
 29 Cs   -0.01815   -0.01815    0.00000
 30 Pb   -0.00008   -0.00008   -0.04464
 31 I    -0.00001   -0.00001    0.00000
 32 I     0.10034   -0.00000    0.00871
 33 I    -0.00000    0.10034    0.00871
 34 Cs    0.01491    0.01491    0.00000
 35 Pb   -0.00008   -0.00008    0.04464
 36 I    -0.00001   -0.00001    0.00000
 37 I     0.10034   -0.00000   -0.00871
 38 I    -0.00000    0.10034   -0.00871

System changes: positions 

Initializing position-dependent things.

Density initialized from wave functions
         .------------------------------.  
        /|                              |  
       / |                              |  
      /  |                              |  
     /   |                              |  
    /    |                              |  
   /   I |     Pb     I       Pb        |  
  /      |                              |  
 *       |   I           Cs I           Cs 
 |       |                              |  
 | I     | Pb  I  I       Pb  I         |  
 |       |                              |  
 |       I           Cs I           Cs  |  
 |       |                              |  
 |     I | I   Pb     I   I   Pb        |  
 |       |                              |  
 |       .---I-----------Cs-I----------Cs  
 |      /                              /   
 | I   /   Pb  I  I       Pb  I       /    
 |    /                              /     
 |   /   I           Cs I           /s     
 |  /                              /       
 | /                      I       /        
 |/                              /         
 *------------------------------*          

Atomic positions and initial magnetic moments

Positions:
   0 Cs    -0.266772   -0.266772   -0.000000    ( 0.0000,  0.0000,  0.0000)
   1 Pb     3.194994    3.194994    3.309430    ( 0.0000,  0.0000,  0.0000)
   2 I      0.030345    3.194963    3.017594    ( 0.0000,  0.0000,  0.0000)
   3 I      3.194963    0.030345    3.017594    ( 0.0000,  0.0000,  0.0000)
   4 Cs    -0.117509   -0.117509    6.390000    ( 0.0000,  0.0000,  0.0000)
   5 Pb     3.194994    3.194994    9.470570    ( 0.0000,  0.0000,  0.0000)
   6 I      3.194940    3.194940    6.390000    ( 0.0000,  0.0000,  0.0000)
   7 I      0.030345    3.194963    9.762406    ( 0.0000,  0.0000,  0.0000)
   8 I      3.194963    0.030345    9.762406    ( 0.0000,  0.0000,  0.0000)
   9 Cs    -0.266776    6.656790   -0.000000    ( 0.0000,  0.0000,  0.0000)
  10 Pb     3.194971    9.585082    3.172678    ( 0.0000,  0.0000,  0.0000)
  11 I      3.194970    9.584997   -0.000000    ( 0.0000,  0.0000,  0.0000)
  12 I      0.010527    9.585032    3.190138    ( 0.0000,  0.0000,  0.0000)
  13 I      3.194960    6.359671    3.017651    ( 0.0000,  0.0000,  0.0000)
  14 Cs    -0.117504    6.507515    6.390000    ( 0.0000,  0.0000,  0.0000)
  15 Pb     3.194971    9.585082    9.607322    ( 0.0000,  0.0000,  0.0000)
  16 I      3.194961    9.585066    6.390000    ( 0.0000,  0.0000,  0.0000)
  17 I      0.010527    9.585032    9.589862    ( 0.0000,  0.0000,  0.0000)
  18 I      3.194960    6.359671    9.762349    ( 0.0000,  0.0000,  0.0000)
  19 Cs     6.656790   -0.266776   -0.000000    ( 0.0000,  0.0000,  0.0000)
  20 Pb     9.585082    3.194971    3.172678    ( 0.0000,  0.0000,  0.0000)
  21 I      9.584997    3.194970    0.000000    ( 0.0000,  0.0000,  0.0000)
  22 I      6.359671    3.194960    3.017651    ( 0.0000,  0.0000,  0.0000)
  23 I      9.585032    0.010527    3.190138    ( 0.0000,  0.0000,  0.0000)
  24 Cs     6.507515   -0.117504    6.390000    ( 0.0000,  0.0000,  0.0000)
  25 Pb     9.585082    3.194971    9.607322    ( 0.0000,  0.0000,  0.0000)
  26 I      9.585066    3.194961    6.390000    ( 0.0000,  0.0000,  0.0000)
  27 I      6.359671    3.194960    9.762349    ( 0.0000,  0.0000,  0.0000)
  28 I      9.585032    0.010527    9.589862    ( 0.0000,  0.0000,  0.0000)
  29 Cs     6.656796    6.656796   -0.000000    ( 0.0000,  0.0000,  0.0000)
  30 Pb     9.585036    9.585036    3.224547    ( 0.0000,  0.0000,  0.0000)
  31 I      9.585033    9.585033    0.000000    ( 0.0000,  0.0000,  0.0000)
  32 I      6.379474    9.585034    3.190142    ( 0.0000,  0.0000,  0.0000)
  33 I      9.585034    6.379474    3.190142    ( 0.0000,  0.0000,  0.0000)
  34 Cs     6.507512    6.507512    6.390000    ( 0.0000,  0.0000,  0.0000)
  35 Pb     9.585036    9.585036    9.555453    ( 0.0000,  0.0000,  0.0000)
  36 I      9.585035    9.585035    6.390000    ( 0.0000,  0.0000,  0.0000)
  37 I      6.379474    9.585034    9.589858    ( 0.0000,  0.0000,  0.0000)
[...]
        /|                              |  
       / |                              |  
      /  |                              |  
     /   |                      I       |  
    /    |                              |  
   /     |     Pb      I      Pb      I |  
  /      |                              |  
 *       |   I           Cs I           Cs 
 |       |                              |  
 | I     | Pb  I  I       Pb  I         |  
 |       |                              |  
 |       I           Cs         I   Cs  |  
 |       |                              |  
 |       | I   Pb      I  I   Pb      I |  
 |       |                              |  
 |       .---I-----------Cs-I----------Cs  
 |      /                              /   
 | I   /   Pb  I  I       Pb  I       /    
 |    /                              /     
 |   /   I           Cs             /s     
 |  /                              /       
 | /                      I       /        
 |/                              /         
 *------------------------------*          

Atomic positions and initial magnetic moments

Positions:
   0 Cs    -0.255506   -0.255506   -0.000000    ( 0.0000,  0.0000,  0.0000)
   1 Pb     3.195010    3.195010    3.299520    ( 0.0000,  0.0000,  0.0000)
   2 I      0.031248    3.194962    3.023669    ( 0.0000,  0.0000,  0.0000)
   3 I      3.194962    0.031248    3.023669    ( 0.0000,  0.0000,  0.0000)
   4 Cs    -0.111701   -0.111701    6.390000    ( 0.0000,  0.0000,  0.0000)
   5 Pb     3.195010    3.195010    9.480480    ( 0.0000,  0.0000,  0.0000)
   6 I      3.194937    3.194937    6.390000    ( 0.0000,  0.0000,  0.0000)
   7 I      0.031248    3.194962    9.756331    ( 0.0000,  0.0000,  0.0000)
   8 I      3.194962    0.031248    9.756331    ( 0.0000,  0.0000,  0.0000)
   9 Cs    -0.255511    6.645527   -0.000000    ( 0.0000,  0.0000,  0.0000)
  10 Pb     3.194985    9.585064    3.176637    ( 0.0000,  0.0000,  0.0000)
  11 I      3.194970    9.584998   -0.000000    ( 0.0000,  0.0000,  0.0000)
  12 I     -0.001908    9.585032    3.192885    ( 0.0000,  0.0000,  0.0000)
  13 I      3.194959    6.358769    3.023730    ( 0.0000,  0.0000,  0.0000)
  14 Cs    -0.111697    6.501710    6.390000    ( 0.0000,  0.0000,  0.0000)
  15 Pb     3.194985    9.585064    9.603363    ( 0.0000,  0.0000,  0.0000)
  16 I      3.194961    9.585069    6.390000    ( 0.0000,  0.0000,  0.0000)
  17 I     -0.001908    9.585032    9.587115    ( 0.0000,  0.0000,  0.0000)
  18 I      3.194959    6.358769    9.756270    ( 0.0000,  0.0000,  0.0000)
  19 Cs     6.645527   -0.255511   -0.000000    ( 0.0000,  0.0000,  0.0000)
  20 Pb     9.585064    3.194985    3.176637    ( 0.0000,  0.0000,  0.0000)
  21 I      9.584998    3.194970    0.000000    ( 0.0000,  0.0000,  0.0000)
  22 I      6.358769    3.194959    3.023730    ( 0.0000,  0.0000,  0.0000)
  23 I      9.585032   -0.001908    3.192885    ( 0.0000,  0.0000,  0.0000)
  24 Cs     6.501710   -0.111697    6.390000    ( 0.0000,  0.0000,  0.0000)
  25 Pb     9.585064    3.194985    9.603363    ( 0.0000,  0.0000,  0.0000)
  26 I      9.585069    3.194961    6.390000    ( 0.0000,  0.0000,  0.0000)
  27 I      6.358769    3.194959    9.756270    ( 0.0000,  0.0000,  0.0000)
  28 I      9.585032   -0.001908    9.587115    ( 0.0000,  0.0000,  0.0000)
  29 Cs     6.645534    6.645534   -0.000000    ( 0.0000,  0.0000,  0.0000)
  30 Pb     9.585025    9.585025    3.217937    ( 0.0000,  0.0000,  0.0000)
  31 I      9.585030    9.585030    0.000000    ( 0.0000,  0.0000,  0.0000)
  32 I      6.391909    9.585034    3.192888    ( 0.0000,  0.0000,  0.0000)
  33 I      9.585034    6.391909    3.192888    ( 0.0000,  0.0000,  0.0000)
  34 Cs     6.501706    6.501706    6.390000    ( 0.0000,  0.0000,  0.0000)
  35 Pb     9.585025    9.585025    9.562063    ( 0.0000,  0.0000,  0.0000)
  36 I      9.585035    9.585035    6.390000    ( 0.0000,  0.0000,  0.0000)
  37 I      6.391909    9.585034    9.587112    ( 0.0000,  0.0000,  0.0000)
  38 I      9.585034    6.391909    9.587112    ( 0.0000,  0.0000,  0.0000)

Unit cell:
           periodic     x           y           z      points  spacing
  1. axis:    yes   12.780000    0.000000    0.000000    75     0.1704
  2. axis:    yes    0.000000   12.780000    0.000000    75     0.1704
  3. axis:    yes    0.000000    0.000000   12.780000    75     0.1704

  Lengths:  12.780000  12.780000  12.780000
  Angles:   90.000000  90.000000  90.000000

Effective grid spacing dv^(1/3) = 0.1704

     iter     time        total  log10-change:
                         energy   eigst   dens
iter:   1 01:57:36  -113.815247   -4.66
iter:   2 01:58:04  -113.815179   -5.87  -3.53
iter:   3 01:58:33  -113.815011c  -5.80  -3.58
iter:   4 01:59:00  -113.815000c  -7.26  -4.07c
iter:   5 01:59:30  -113.814995c  -7.20  -4.06c
iter:   6 01:59:58  -113.814988c  -7.31  -4.24c
iter:   7 02:00:27  -113.814987c  -8.05c -4.50c

Converged after 7 iterations.

Dipole moment: (85.287895, 85.287895, -0.000000) |e|*Ang

Energy contributions relative to reference atoms: (reference = -10684034.619125)

Kinetic:       +163.127102
Potential:     -182.501095
External:        +0.000000
XC:             -93.472251
Entropy (-ST):   -0.000159
Local:           -0.968663
SIC:             +0.000000
--------------------------
Free energy:   -113.815067
Extrapolated:  -113.814987

Showing all kpts
 Kpt  Band  Eigenvalues  Occupancy
  0   170      1.05253    1.99999
  0   171      1.14525    1.99998
  0   172      3.33687    0.00006
  0   173      3.96835    0.00000

  1   170      1.05253    1.99999
  1   171      1.14525    1.99998
  1   172      3.33687    0.00006
  1   173      3.96835    0.00000


Fermi level: 2.30079

Gap: 2.192 eV
Transition (v -> c):
  (s=0, k=1, n=171, [0.25, 0.25, 0.25]) -> (s=0, k=0, n=172, [0.25, -0.25, 0.25])
Direct/indirect transitions are different
Direct gap: 2.192 eV
Transition at: (s=0, k=0, n=171, [0.25, -0.25, 0.25])

Forces in eV/Ang:
  0 Cs    0.00989    0.00989    0.00000
  1 Pb    0.00003    0.00003    0.04105
  2 I     0.01289    0.00001   -0.01463
  3 I     0.00001    0.01289   -0.01463
  4 Cs   -0.01180   -0.01180    0.00000
  5 Pb    0.00003    0.00003   -0.04105
  6 I    -0.00001   -0.00001    0.00000
  7 I     0.01289    0.00001    0.01463
  8 I     0.00001    0.01289    0.01463
  9 Cs    0.00990   -0.00989    0.00000
 10 Pb    0.00002   -0.00005    0.01310
 11 I     0.00001   -0.00002    0.00000
 12 I    -0.01406   -0.00001    0.00395
 13 I     0.00001   -0.01286   -0.01461
 14 Cs   -0.01180    0.01181    0.00000
 15 Pb    0.00002   -0.00005   -0.01310
 16 I     0.00001    0.00000    0.00000
 17 I    -0.01406   -0.00001   -0.00395
 18 I     0.00001   -0.01286    0.01461
 19 Cs   -0.00989    0.00990    0.00000
 20 Pb   -0.00005    0.00002    0.01310
 21 I    -0.00002    0.00001    0.00000
 22 I    -0.01286    0.00001   -0.01461
 23 I    -0.00001   -0.01406    0.00395
 24 Cs    0.01181   -0.01180    0.00000
 25 Pb   -0.00005    0.00002   -0.01310
 26 I     0.00000    0.00001    0.00000
 27 I    -0.01286    0.00001    0.01461
 28 I    -0.00001   -0.01406   -0.00395
 29 Cs   -0.00989   -0.00989    0.00000
 30 Pb   -0.00002   -0.00002   -0.02425
 31 I    -0.00002   -0.00002    0.00000
 32 I     0.01407   -0.00001    0.00395
 33 I    -0.00001    0.01407    0.00395
 34 Cs    0.01181    0.01181    0.00000
 35 Pb   -0.00002   -0.00002    0.02425
 36 I    -0.00001   -0.00001    0.00000
 37 I     0.01407   -0.00001   -0.00395
 38 I    -0.00001    0.01407   -0.00395

System changes: positions 

Initializing position-dependent things.

Density initialized from wave functions
         .------------------------------.  
        /|                              |  
       / |                              |  
      /  |                              |  
     /   |                      I       |  
    /    |                              |  
   /     |     Pb      I      Pb      I |  
  /      |                              |  
 *       |   I           Cs I           Cs 
 |       |                              |  
 | I     | Pb  I  I       Pb  I         |  
 |       |                              |  
 |       I           Cs         I   Cs  |  
 |       |                              |  
 |       | I   Pb      I  I   Pb      I |  
 |       |                              |  
 |       .---I-----------Cs-I----------Cs  
 |      /                              /   
 | I   /   Pb  I  I       Pb  I       /    
 |    /                              /     
 |   /   I           Cs             /s     
 |  /                              /       
 | /                      I       /        
 |/                              /         
 *------------------------------*          

Atomic positions and initial magnetic moments

Positions:
   0 Cs    -0.260803   -0.260803   -0.000000    ( 0.0000,  0.0000,  0.0000)
   1 Pb     3.195017    3.195017    3.302847    ( 0.0000,  0.0000,  0.0000)
   2 I      0.034637    3.194957    3.013496    ( 0.0000,  0.0000,  0.0000)
   3 I      3.194957    0.034637    3.013496    ( 0.0000,  0.0000,  0.0000)
   4 Cs    -0.121686   -0.121686    6.390000    ( 0.0000,  0.0000,  0.0000)
   5 Pb     3.195017    3.195017    9.477153    ( 0.0000,  0.0000,  0.0000)
   6 I      3.194928    3.194928    6.390000    ( 0.0000,  0.0000,  0.0000)
   7 I      0.034637    3.194957    9.766504    ( 0.0000,  0.0000,  0.0000)
   8 I      3.194957    0.034637    9.766504    ( 0.0000,  0.0000,  0.0000)
   9 Cs    -0.260807    6.650825   -0.000000    ( 0.0000,  0.0000,  0.0000)
  10 Pb     3.194987    9.585064    3.178230    ( 0.0000,  0.0000,  0.0000)
  11 I      3.194965    9.585001   -0.000000    ( 0.0000,  0.0000,  0.0000)
  12 I     -0.007018    9.585037    3.193681    ( 0.0000,  0.0000,  0.0000)
  13 I      3.194954    6.355384    3.013562    ( 0.0000,  0.0000,  0.0000)
  14 Cs    -0.121682    6.511697    6.390000    ( 0.0000,  0.0000,  0.0000)
  15 Pb     3.194987    9.585064    9.601770    ( 0.0000,  0.0000,  0.0000)
  16 I      3.194956    9.585077    6.390000    ( 0.0000,  0.0000,  0.0000)
  17 I     -0.007018    9.585037    9.586319    ( 0.0000,  0.0000,  0.0000)
  18 I      3.194954    6.355384    9.766438    ( 0.0000,  0.0000,  0.0000)
  19 Cs     6.650825   -0.260807   -0.000000    ( 0.0000,  0.0000,  0.0000)
  20 Pb     9.585064    3.194987    3.178230    ( 0.0000,  0.0000,  0.0000)
  21 I      9.585001    3.194965    0.000000    ( 0.0000,  0.0000,  0.0000)
  22 I      6.355384    3.194954    3.013562    ( 0.0000,  0.0000,  0.0000)
  23 I      9.585037   -0.007018    3.193681    ( 0.0000,  0.0000,  0.0000)
  24 Cs     6.511697   -0.121682    6.390000    ( 0.0000,  0.0000,  0.0000)
  25 Pb     9.585064    3.194987    9.601770    ( 0.0000,  0.0000,  0.0000)
  26 I      9.585077    3.194956    6.390000    ( 0.0000,  0.0000,  0.0000)
  27 I      6.355384    3.194954    9.766438    ( 0.0000,  0.0000,  0.0000)
  28 I      9.585037   -0.007018    9.586319    ( 0.0000,  0.0000,  0.0000)
  29 Cs     6.650831    6.650831   -0.000000    ( 0.0000,  0.0000,  0.0000)
  30 Pb     9.585024    9.585024    3.214207    ( 0.0000,  0.0000,  0.0000)
  31 I      9.585035    9.585035    0.000000    ( 0.0000,  0.0000,  0.0000)
  32 I      6.397019    9.585039    3.193684    ( 0.0000,  0.0000,  0.0000)
  33 I      9.585039    6.397019    3.193684    ( 0.0000,  0.0000,  0.0000)
  34 Cs     6.511693    6.511693    6.390000    ( 0.0000,  0.0000,  0.0000)
  35 Pb     9.585024    9.585024    9.565793    ( 0.0000,  0.0000,  0.0000)
  36 I      9.585039    9.585039    6.390000    ( 0.0000,  0.0000,  0.0000)
  37 I      6.397019    9.585039    9.586316    ( 0.0000,  0.0000,  0.0000)
  38 I      9.585039    6.397019    9.586316    ( 0.0000,  0.0000,  0.0000)

Unit cell:
           periodic     x           y           z      points  spacing
  1. axis:    yes   12.780000    0.000000    0.000000    75     0.1704
  2. axis:    yes    0.000000   12.780000    0.000000    75     0.1704
  3. axis:    yes    0.000000    0.000000   12.780000    75     0.1704

  Lengths:  12.780000  12.780000  12.780000
  Angles:   90.000000  90.000000  90.000000

Effective grid spacing dv^(1/3) = 0.1704

     iter     time        total  log10-change:
                         energy   eigst   dens
iter:   1 02:01:09  -113.817577   -4.13
iter:   2 02:01:37  -113.817419   -5.39  -3.33
iter:   3 02:02:05  -113.816998c  -5.28  -3.38
iter:   4 02:02:33  -113.816971c  -6.79  -3.83
iter:   5 02:03:01  -113.816964c  -6.77  -3.85
iter:   6 02:03:30  -113.816946c  -6.95  -4.01c
iter:   7 02:03:57  -113.816945c  -7.81c -4.29c

Converged after 7 iterations.

Dipole moment: (88.808206, 88.808206, -0.000000) |e|*Ang

Energy contributions relative to reference atoms: (reference = -10684034.619125)

Kinetic:       +163.347422
Potential:     -182.694762
External:        +0.000000
XC:             -93.500574
Entropy (-ST):   -0.000150
Local:           -0.968957
SIC:             +0.000000
--------------------------
Free energy:   -113.817020
Extrapolated:  -113.816945

Showing all kpts
 Kpt  Band  Eigenvalues  Occupancy
  0   170      1.05131    1.99999
  0   171      1.15047    1.99998
  0   172      3.35185    0.00006
  0   173      3.96846    0.00000

  1   170      1.05131    1.99999
  1   171      1.15047    1.99998
  1   172      3.35185    0.00006
  1   173      3.96846    0.00000


Fermi level: 2.30896

Gap: 2.201 eV
Transition (v -> c):
  (s=0, k=1, n=171, [0.25, 0.25, 0.25]) -> (s=0, k=0, n=172, [0.25, -0.25, 0.25])
Direct/indirect transitions are different
Direct gap: 2.201 eV
Transition at: (s=0, k=0, n=171, [0.25, -0.25, 0.25])

Forces in eV/Ang:
  0 Cs    0.01762    0.01762    0.00000
  1 Pb    0.00001    0.00001    0.02505
  2 I    -0.00650    0.00002   -0.01210
  3 I     0.00002   -0.00650   -0.01210
  4 Cs   -0.01023   -0.01023    0.00000
  5 Pb    0.00001    0.00001   -0.02505
  6 I    -0.00001   -0.00001    0.00000
  7 I    -0.00650    0.00002    0.01210
  8 I     0.00002   -0.00650    0.01210
  9 Cs    0.01762   -0.01761    0.00000
 10 Pb    0.00001   -0.00003    0.00150
 11 I     0.00001   -0.00002    0.00000
 12 I     0.01401   -0.00001    0.00582
 13 I     0.00002    0.00653   -0.01207
 14 Cs   -0.01023    0.01024    0.00000
 15 Pb    0.00001   -0.00003   -0.00150
 16 I     0.00001    0.00000    0.00000
 17 I     0.01401   -0.00001   -0.00582
 18 I     0.00002    0.00653    0.01207
 19 Cs   -0.01761    0.01762    0.00000
 20 Pb   -0.00003    0.00001    0.00150
 21 I    -0.00002    0.00001    0.00000
 22 I     0.00653    0.00002   -0.01207
 23 I    -0.00001    0.01401    0.00582
 24 Cs    0.01024   -0.01023    0.00000
 25 Pb   -0.00003    0.00001   -0.00150
 26 I     0.00000    0.00001    0.00000
 27 I     0.00653    0.00002    0.01207
 28 I    -0.00001    0.01401   -0.00582
 29 Cs   -0.01761   -0.01761    0.00000
 30 Pb   -0.00002   -0.00002   -0.00517
 31 I    -0.00002   -0.00002    0.00000
 32 I    -0.01400   -0.00001    0.00582
 33 I    -0.00001   -0.01400    0.00582
 34 Cs    0.01024    0.01024    0.00000
 35 Pb   -0.00002   -0.00002    0.00517
 36 I    -0.00001   -0.00001    0.00000
 37 I    -0.01400   -0.00001   -0.00582
 38 I    -0.00001   -0.01400   -0.00582

Timing:                                      incl.     excl.
-------------------------------------------------------------------
Density initialized from wave functions:    42.032    41.161   0.1% |
 Symmetrize density:                         0.871     0.871   0.0% |
Forces:                                    137.951   137.951   0.4% |
Hamiltonian:                                37.132     0.142   0.0% |
 Atomic:                                    13.030     0.030   0.0% |
  XC Correction:                            13.001    13.001   0.0% |
 Calculate atomic Hamiltonians:             14.384    14.384   0.0% |
 Communicate:                                0.000     0.000   0.0% |
 Initialize Hamiltonian:                     0.001     0.001   0.0% |
 Poisson:                                    0.175     0.175   0.0% |
 XC 3D grid:                                 9.399     9.399   0.0% |
LCAO initialization:                        36.005     0.088   0.0% |
 LCAO eigensolver:                           0.842     0.000   0.0% |
  Calculate projections:                     0.003     0.003   0.0% |
  DenseAtomicCorrection:                     0.109     0.109   0.0% |
  Distribute overlap matrix:                 0.001     0.001   0.0% |
  Orbital Layouts:                           0.033     0.033   0.0% |
  Potential matrix:                          0.657     0.657   0.0% |
  Sum over cells:                            0.039     0.039   0.0% |
 LCAO to grid:                              34.770    34.770   0.1% |
 Set positions (LCAO WFS):                   0.305     0.048   0.0% |
  Basic WFS set positions:                   0.002     0.002   0.0% |
  Basis functions set positions:             0.000     0.000   0.0% |
  P tci:                                     0.188     0.188   0.0% |
  ST tci:                                    0.059     0.059   0.0% |
  mktci:                                     0.008     0.008   0.0% |
PWDescriptor:                                0.215     0.215   0.0% |
Redistribute:                                0.038     0.038   0.0% |
SCF-cycle:                                3357.982     0.240   0.0% |
 Davidson:                                2732.988   478.736   1.5% ||
  Apply H:                                 441.245   430.965   1.3% ||
   HMM T:                                   10.279    10.279   0.0% |
  Subspace diag:                           558.541     0.033   0.0% |
   calc_h_matrix:                          496.799    52.828   0.2% |
    Apply H:                               443.971   433.580   1.4% ||
     HMM T:                                 10.390    10.390   0.0% |
   diagonalize:                             10.728    10.728   0.0% |
   rotate_psi:                              50.982    50.982   0.2% |
  calc. matrices:                         1113.090   226.512   0.7% |
   Apply H:                                886.578   865.610   2.7% ||
    HMM T:                                  20.968    20.968   0.1% |
  diagonalize:                              50.071    50.071   0.2% |
  rotate_psi:                               91.306    91.306   0.3% |
 Density:                                  335.790     0.002   0.0% |
  Atomic density matrices:                   0.441     0.441   0.0% |
  Mix:                                     128.428   128.428   0.4% |
  Multipole moments:                         0.035     0.035   0.0% |
  Pseudo density:                          206.883   200.057   0.6% |
   Symmetrize density:                       6.826     6.826   0.0% |
 Hamiltonian:                              272.057     0.950   0.0% |
  Atomic:                                   97.695     0.227   0.0% |
   XC Correction:                           97.468    97.468   0.3% |
  Calculate atomic Hamiltonians:           106.866   106.866   0.3% |
  Communicate:                               0.001     0.001   0.0% |
  Poisson:                                   1.146     1.146   0.0% |
  XC 3D grid:                               65.400    65.400   0.2% |
 Orthonormalize:                            16.906     0.005   0.0% |
  calc_s_matrix:                             1.719     1.719   0.0% |
  inverse-cholesky:                          0.217     0.217   0.0% |
  projections:                              11.626    11.626   0.0% |
  rotate_psi_s:                              3.339     3.339   0.0% |
Set symmetry:                                0.001     0.001   0.0% |
Other:                                   28460.959 28460.959  88.7% |----------------------------------|
-------------------------------------------------------------------
Total:                                             32072.317 100.0%

Memory usage: 5.42 GiB
Date: Fri Jul 17 09:57:48 2026
