39
Lattice="11.404885457457713 3.871623298888526e-19 2.6491287164135604e-19 3.4881763357273366e-17 11.404885457462738 1.8551693266735985e-12 6.816313686707039e-17 2.1458579296244505e-12 11.404885457457695" Properties=species:S:1:pos:R:3:spacegroup_kinds:I:1:forces:R:3:energies:R:1 spacegroup="P m -3 m" unit_cell=conventional energy=-138.32337941134566 stress="-0.0014949720135028028 1.9074446262262777e-18 -1.3697569056152136e-18 1.9074446262262777e-18 0.00047063465595527235 -2.395605968902811e-06 -1.3697569056152136e-18 -2.395605968902811e-06 -0.0015015380445258376" free_energy=-138.32337941134566 pbc="T T T"
Cs      -0.13927732      -0.00290103      -0.12970888        0       0.00187474      -0.00207038       0.00188490      -3.75524730
Pb       2.85122136       2.93570154       2.84670823        1       0.00000000       0.01220325       0.00488035      -4.55420700
Cl       0.03597570       2.80512470       2.84280034        2       0.00929103      -0.00980800       0.00399703      -3.05120689
Cl       2.85122136       2.79749262       0.03335324        2      -0.00000000      -0.00975706       0.01391333      -3.04856942
Cs      -0.12089004       0.01520767       5.83914618        0      -0.00368989      -0.00873205       0.00099252      -3.74923187
Pb       2.85122136       2.84538106       8.56290861        1       0.00000000      -0.00180527      -0.01188898      -4.82161647
Cl       2.85122136       2.80924705       5.66375314        2      -0.00000000      -0.01020994      -0.00351604      -3.05493500
Cl      -0.00021223       2.83152199       8.56266741        2      -0.00176372      -0.00429626      -0.00430443      -3.05454287
Cl       2.85122136      -0.00061391       8.56471442        2      -0.00000000      -0.00014054      -0.00626476      -3.01867558
Cs      -0.08514972       5.70585630      -0.07278279        0       0.00759794       0.00261950       0.00674941      -3.77906806
Pb       2.85122136       8.46977602       2.84947078        1      -0.00000000       0.00132336      -0.00033483      -4.56209281
Cl       2.85122136       8.59912783       0.03631951        2       0.00000000       0.01029385       0.00386937      -3.04559670
Cl       0.03665147       8.59364898       2.84080040        2       0.00292071       0.01008547       0.00160437      -3.04706547
Cl       2.85122136       5.70552163       2.84608882        2       0.00000000      -0.01625553       0.00121747      -3.12394635
Cs      -0.06269936       5.68629240       5.77773893        0       0.00224549       0.00816755      -0.00513098      -3.77392280
Pb       2.85122136       8.55745813       8.55724072        1       0.00000000       0.00179956      -0.00075226      -4.82454424
Cl       2.85122136       8.59290926       5.66551596        2      -0.00000000       0.01020789      -0.00087519      -3.04951661
Cl      -0.00009978       8.57201715       8.56386238        2      -0.00216248       0.00453422      -0.00258725      -3.05123909
Cl       2.85122136       5.70086389       8.56859800        2      -0.00000000       0.00024769      -0.00278456      -3.03631614
Cs       5.84172005      -0.00290103      -0.12970888        0      -0.00187474      -0.00207038       0.00188490      -3.75524730
Pb       8.55366409       2.84512253       2.84928665        1       0.00000000      -0.00194921       0.00111334      -4.82246039
Cl       8.55366409       2.83226477       0.00026308        2      -0.00000000      -0.00434976      -0.00245427      -3.05221007
Cl       5.66646703       2.80512470       2.84280034        2      -0.00929103      -0.00980800       0.00399703      -3.05120689
Cl       8.55366409      -0.00076011       2.84090317        2      -0.00000000       0.00048907       0.00101528      -3.01763599
Cs       5.82333277       0.01520767       5.83914618        0       0.00368989      -0.00873205       0.00099252      -3.74923187
Pb       8.55366409       2.85816212       8.55651922        1       0.00000000      -0.00040550      -0.00100540      -4.79465442
Cl       8.55366409       2.83117011       5.70311752        2      -0.00000000      -0.00395435       0.00251407      -3.05594022
Cl       5.70265496       2.83152199       8.56266741        2       0.00176372      -0.00429626      -0.00430443      -3.05454287
Cl       8.55366409      -0.00032256       8.56141192        2      -0.00000000       0.00034427      -0.00331533      -3.07977690
Cs       5.78759245       5.70585630      -0.07278279        0      -0.00759794       0.00261950       0.00674941      -3.77906806
Pb       8.55366409       8.55769798       2.85196861        1       0.00000000       0.00170279      -0.00010447      -4.82534888
Cl       8.55366409       8.57079759       0.00024359        2      -0.00000000       0.00421211      -0.00393005      -3.05125442
Cl       5.66579126       8.59364898       2.84080040        2      -0.00292071       0.01008547       0.00160437      -3.04706547
Cl       8.55366409       5.70092198       2.84032039        2      -0.00000000      -0.00031704       0.00160274      -3.03560231
Cs       5.76514209       5.68629240       5.77773893        0      -0.00224549       0.00816755      -0.00513098      -3.77392280
Pb       8.55366409       8.54536494       8.55273482        1      -0.00000000       0.00079682       0.00051841      -4.79794649
Cl       8.55366409       8.57285287       5.70265089        2      -0.00000000       0.00456928       0.00309472      -3.05020560
Cl       5.70254251       8.57201715       8.56386238        2       0.00216248       0.00453422      -0.00258725      -3.05123909
Cl       8.55366409       5.70131303       8.56369141        2       0.00000000      -0.00004584      -0.00292409      -3.07727871
