
  ___ ___ ___ _ _ _  
 |   |   |_  | | | | 
 | | | | | . | | | | 
 |__ |  _|___|_____|  25.7.0
 |___|_|             

User:   buyer@DESKTOP-3EQA59H
Date:   Sun Jul 19 03:17:25 2026
Arch:   x86_64
Pid:    35323
CWD:    /mnt/c/Users/Buyer/dft-si
Python: 3.11.15
gpaw:   /home/buyer/miniconda3/envs/dft/lib/python3.11/site-packages/gpaw
_gpaw:  /home/buyer/miniconda3/envs/dft/lib/python3.11/site-packages/
        _gpaw.cpython-311-x86_64-linux-gnu.so
ase:    /home/buyer/miniconda3/envs/dft/lib/python3.11/site-packages/ase (version 3.29.0)
numpy:  /home/buyer/miniconda3/envs/dft/lib/python3.11/site-packages/numpy (version 2.4.6)
scipy:  /home/buyer/miniconda3/envs/dft/lib/python3.11/site-packages/scipy (version 1.17.1)
libxc:  7.0.0
units:  Angstrom and eV
cores: 1
OpenMP: True
OMP_NUM_THREADS: 1

Input parameters:
  kpts: [2 2 2]
  mode: {ecut: 600.0,
         name: pw}
  xc: PBE

System changes: positions, numbers, cell, pbc, initial_charges, initial_magmoms 

Initialize ...

species:
  Cs:
    name: Caesium
    id: fa822afd343f47335d508b9ee4f394c3
    Z: 55.0
    valence: 9
    core: 46
    charge: 0.0
    file: /home/buyer/miniconda3/envs/dft/lib/python3.11/site-packages/gpaw_data/setups/Cs.PBE.gz
    compensation charges: {type: gauss,
                           rc: 0.33,
                           lmax: 2}
    cutoffs: {filter: 2.06,
              core: 2.51}
    projectors:
      #              energy  rcut
      - 5s(2.00)   -26.706   1.164
      - 6s(1.00)    -2.085   1.164
      - 5p(6.00)   -13.523   1.058
      -  p          13.688   1.058
      -  d           0.000   1.058
  
    # Using partial waves for Cs as LCAO basis

  Pb:
    name: Lead
    id: 66e73b13d76dc837202bcdb13fee58e6
    Z: 82.0
    valence: 14
    core: 68
    charge: 0.0
    file: /home/buyer/miniconda3/envs/dft/lib/python3.11/site-packages/gpaw_data/setups/Pb.PBE.gz
    compensation charges: {type: gauss,
                           rc: 0.38,
                           lmax: 2}
    cutoffs: {filter: 2.36,
              core: 2.43}
    projectors:
      #              energy  rcut
      - 6s(2.00)   -11.969   1.259
      - 6p(2.00)    -3.506   1.275
      - 5d(10.00)   -21.211   1.217
      -  s          15.243   1.259
      -  p          23.705   1.275
      -  d           6.001   1.217
  
    # Using partial waves for Pb as LCAO basis

  Cl:
    name: Chlorine
    id: 726897f06f34e53cf8e33b5885a02604
    Z: 17.0
    valence: 7
    core: 10
    charge: 0.0
    file: /home/buyer/miniconda3/envs/dft/lib/python3.11/site-packages/gpaw_data/setups/Cl.PBE.gz
    compensation charges: {type: gauss,
                           rc: 0.25,
                           lmax: 2}
    cutoffs: {filter: 1.40,
              core: 1.49}
    projectors:
      #              energy  rcut
      - 3s(2.00)   -20.689   0.794
      - 3p(5.00)    -8.594   0.794
      -  s           6.523   0.794
      -  p          18.617   0.794
      -  d           0.000   0.794
  
    # Using partial waves for Cl as LCAO basis

Reference energy: -6521360.154902  # eV

Spin-paired calculation

Convergence criteria:
 Maximum [total energy] change in last 3 cyles: 0.0005 eV / valence electron
 Maximum integral of absolute [dens]ity change: 0.0001 electrons / valence electron
 Maximum integral of absolute [eigenst]ate change: 4e-08 eV^2 / valence electron
 Maximum number of scf [iter]ations: 333
 (Square brackets indicate name in SCF output, whereas a 'c' in
 the SCF output indicates the quantity has converged.)

Symmetries present (total): 1

  ( 1  0  0)
  ( 0  1  0)
  ( 0  0  1)

8 k-points: 2 x 2 x 2 Monkhorst-Pack grid
4 k-points in the irreducible part of the Brillouin zone
       k-points in crystal coordinates                weights
   0:     0.25000000   -0.25000000   -0.25000000          2/8
   1:     0.25000000   -0.25000000    0.25000000          2/8
   2:     0.25000000    0.25000000   -0.25000000          2/8
   3:     0.25000000    0.25000000    0.25000000          2/8

Wave functions: Plane wave expansion
  Cutoff energy: 600.000 eV
  Number of coefficients (min, max): 49520, 49520
  Pulay-stress correction: 0.000000 eV/Ang^3 (de/decut=0.000000)
  Using FFTW library
  ScaLapack parameters: grid=1x1, blocksize=None
  Wavefunction extrapolation:
    Improved wavefunction reuse through dual PAW basis 

Occupation numbers: Fermi-Dirac:
  width: 0.1000  # eV
 

Eigensolver
   Davidson(niter=2) 

Densities:
  Coarse grid: 70*70*70 grid
  Fine grid: 140*140*140 grid
  Total Charge: 0.000000 

Density mixing:
  Method: separate
  Backend: pulay
  Linear mixing parameter: 0.05
  old densities: 5
  Damping of long wavelength oscillations: 50 

Hamiltonian:
  XC and Coulomb potentials evaluated on a 140*140*140 grid
  Using the PBE Exchange-Correlation functional
  External potential:
    NoExternalPotential
 

XC parameters: PBE with 2 nearest neighbor stencil

Memory estimate:
  Process memory now: 11043.19 MiB
  Calculator: 1061.47 MiB
    Density: 173.28 MiB
      Arrays: 68.04 MiB
      Localized functions: 79.08 MiB
      Mixer: 26.17 MiB
    Hamiltonian: 46.62 MiB
      Arrays: 44.49 MiB
      XC: 0.00 MiB
      Poisson: 0.00 MiB
      vbar: 2.14 MiB
    Wavefunctions: 841.56 MiB
      Arrays psit_nG: 616.58 MiB
      Eigensolver: 164.28 MiB
      Projections: 6.81 MiB
      Projectors: 37.78 MiB
      PW-descriptor: 16.11 MiB

Total number of cores used: 1

Number of atoms: 39
Number of atomic orbitals: 204
Number of bands in calculation: 204
Number of valence electrons: 345
Bands to converge: occupied

... initialized

Initializing position-dependent things.

Density initialized from atomic densities
Creating initial wave functions:
  204 bands from LCAO basis set

                                           
                                           
                                           
                                           
             Cl     Pb     Cl     Pb       
                                           
                  Cl            Cl         
         Cl     Pb  Cl Cl     Pb  Cl       
                                           
           Cs Cl         Cs Cl             
                                           
             Cl Cl  Pb     Cl Cl  Pb       
                                           
       Cs         Cl  Cs        Cl         
                                           
         Cl     Pb  Cl Cl     Pb  Cl       
                            Cl             
           Cs            Cs                
                Cl            Cl           
                                           
       Cs             Cs                   
                                           
                                           
                                           
                                           

Atomic positions and initial magnetic moments

Positions:
   0 Cs    -0.138244   -0.024598   -0.108091    ( 0.0000,  0.0000,  0.0000)
   1 Pb     2.851221    2.921622    2.862484    ( 0.0000,  0.0000,  0.0000)
   2 Cl     0.036177    2.812807    2.837556    ( 0.0000,  0.0000,  0.0000)
   3 Cl     2.851221    2.337441    0.496350    ( 0.0000,  0.0000,  0.0000)
   4 Cs    -0.113182    0.000232    5.816362    ( 0.0000,  0.0000,  0.0000)
   5 Pb     2.851221    2.846354    8.546344    ( 0.0000,  0.0000,  0.0000)
   6 Cl     2.851221    2.816243    5.670201    ( 0.0000,  0.0000,  0.0000)
   7 Cl     0.006020    2.834805    8.567814    ( 0.0000,  0.0000,  0.0000)
   8 Cl     2.851221    0.005685    8.569520    ( 0.0000,  0.0000,  0.0000)
   9 Cs    -0.093138    5.727467   -0.060652    ( 0.0000,  0.0000,  0.0000)
  10 Pb     2.851221    8.483757    2.848997    ( 0.0000,  0.0000,  0.0000)
  11 Cl     2.851221    8.591551    0.030266    ( 0.0000,  0.0000,  0.0000)
  12 Cl     0.030084    8.586985    2.839553    ( 0.0000,  0.0000,  0.0000)
  13 Cl     2.851221    5.698812    2.840297    ( 0.0000,  0.0000,  0.0000)
  14 Cs    -0.064690    5.701425    5.765190    ( 0.0000,  0.0000,  0.0000)
  15 Pb     2.851221    8.556826    8.557410    ( 0.0000,  0.0000,  0.0000)
  16 Cl     2.851221    8.586368    5.671670    ( 0.0000,  0.0000,  0.0000)
  17 Cl    -0.000542    8.568958    8.565147    ( 0.0000,  0.0000,  0.0000)
  18 Cl     2.851221    5.694930    8.572756    ( 0.0000,  0.0000,  0.0000)
  19 Cs     5.840687   -0.024598   -0.108091    ( 0.0000,  0.0000,  0.0000)
  20 Pb     8.553664    2.846139    2.848844    ( 0.0000,  0.0000,  0.0000)
  21 Cl     8.553664    2.835424    0.000219    ( 0.0000,  0.0000,  0.0000)
  22 Cl     5.666266    2.812807    2.837556    ( 0.0000,  0.0000,  0.0000)
  23 Cl     8.553664   -0.001092    2.839639    ( 0.0000,  0.0000,  0.0000)
  24 Cs     5.815625    0.000232    5.816362    ( 0.0000,  0.0000,  0.0000)
  25 Pb     8.553664    2.857005    8.556809    ( 0.0000,  0.0000,  0.0000)
  26 Cl     8.553664    2.834512    5.703005    ( 0.0000,  0.0000,  0.0000)
  27 Cl     5.696423    2.834805    8.567814    ( 0.0000,  0.0000,  0.0000)
  28 Cl     8.553664   -0.000728    8.563105    ( 0.0000,  0.0000,  0.0000)
  29 Cs     5.795581    5.727467   -0.060652    ( 0.0000,  0.0000,  0.0000)
  30 Pb     8.553664    8.557026    2.853108    ( 0.0000,  0.0000,  0.0000)
  31 Cl     8.553664    8.567942    0.000203    ( 0.0000,  0.0000,  0.0000)
  32 Cl     5.672359    8.586985    2.839553    ( 0.0000,  0.0000,  0.0000)
  33 Cl     8.553664    5.701634    2.839153    ( 0.0000,  0.0000,  0.0000)
  34 Cs     5.767133    5.701425    5.765190    ( 0.0000,  0.0000,  0.0000)
  35 Pb     8.553664    8.546748    8.551626    ( 0.0000,  0.0000,  0.0000)
  36 Cl     8.553664    8.569655    5.702616    ( 0.0000,  0.0000,  0.0000)
  37 Cl     5.702985    8.568958    8.565147    ( 0.0000,  0.0000,  0.0000)
  38 Cl     8.553664    5.701960    8.565004    ( 0.0000,  0.0000,  0.0000)

Unit cell:
           periodic     x           y           z      points  spacing
  1. axis:    yes   11.404885    0.000000    0.000000    70     0.1629
  2. axis:    yes    0.000000   11.404885    0.000000    70     0.1629
  3. axis:    yes    0.000000    0.000000   11.404885    70     0.1629

  Lengths:  11.404885  11.404885  11.404885
  Angles:   90.000000  90.000000  90.000000

Effective grid spacing dv^(1/3) = 0.1629

     iter     time        total  log10-change:
                         energy   eigst   dens
iter:   1 04:46:30  -141.772678
iter:   2 04:47:10  -140.724008   -1.02  -1.22
iter:   3 04:47:49  -136.710019   -1.45  -1.27
iter:   4 04:48:29  -136.098346   -1.44  -1.49
iter:   5 04:49:09  -136.120646   -2.51  -1.65
iter:   6 04:49:48  -136.043070c  -3.04  -2.03
iter:   7 04:50:28  -135.967502c  -2.85  -2.22
iter:   8 04:51:08  -135.944815c  -3.77  -2.23
iter:   9 04:51:48  -135.943714c  -4.51  -2.64
iter:  10 04:52:28  -135.953195c  -4.37  -2.68
iter:  11 04:53:07  -135.950572c  -5.48  -2.99
iter:  12 04:53:50  -135.948559c  -5.57  -3.17
iter:  13 04:54:29  -135.949380c  -5.51  -3.24
iter:  14 04:55:09  -135.948824c  -6.30  -3.46
iter:  15 04:55:48  -135.948544c  -5.58  -3.53
iter:  16 04:56:29  -135.948996c  -6.46  -3.76
iter:  17 04:57:09  -135.948940c  -7.08  -3.99
iter:  18 04:57:48  -135.949019c  -7.49c -4.11c

Converged after 18 iterations.

Dipole moment: (44.092152, 6.317598, 26.096420) |e|*Ang

Energy contributions relative to reference atoms: (reference = -6521360.154902)

Kinetic:       +212.559024
Potential:     -218.989359
External:        +0.000000
XC:            -129.528660
Entropy (-ST):   -0.187886
Local:           +0.103919
SIC:             +0.000000
--------------------------
Free energy:   -136.042962
Extrapolated:  -135.949019

Showing only first 2 kpts
 Kpt  Band  Eigenvalues  Occupancy
  0   170      1.26127    2.00000
  0   171      1.62478    2.00000
  0   172      4.59305    0.88615
  0   173      4.93617    0.05018

  1   170      1.27512    2.00000
  1   171      1.61386    2.00000
  1   172      4.58579    0.92209
  1   173      4.93630    0.05011


Fermi level: 4.57018

Gap: 2.961 eV
Transition (v -> c):
  (s=0, k=0, n=171, [0.25, -0.25, -0.25]) -> (s=0, k=1, n=172, [0.25, -0.25, 0.25])
Direct/indirect transitions are different
Direct gap: 2.968 eV
Transition at: (s=0, k=0, n=171, [0.25, -0.25, -0.25])

Forces in eV/Ang:
  0 Cs    0.04320   -0.00158    0.05109
  1 Pb    0.00000    0.07088    1.67322
  2 Cl   -0.39957   -0.00666    0.01858
  3 Cl    0.00000   -0.52971   -2.71283
  4 Cs    0.03494    0.00591   -0.03828
  5 Pb    0.00000   -0.07278   -0.14943
  6 Cl   -0.00000   -0.08066    1.18560
  7 Cl   -0.03263    0.01217    0.01363
  8 Cl   -0.00000    0.00371   -0.03146
  9 Cs    0.02271    0.02466    0.07636
 10 Pb    0.00000    0.49300    0.01430
 11 Cl   -0.00000   -0.01432   -0.26698
 12 Cl   -0.26593    0.01119    0.00016
 13 Cl   -0.00000    0.07049   -0.09382
 14 Cs    0.06173   -0.00710   -0.07244
 15 Pb    0.00000    0.03474   -0.00511
 16 Cl   -0.00000   -0.00079    0.27645
 17 Cl   -0.04412   -0.00876   -0.00334
 18 Cl   -0.00000   -0.01557    0.04195
 19 Cs   -0.04320   -0.00158    0.05109
 20 Pb    0.00000    0.00487   -0.00092
 21 Cl    0.00000    0.00531   -0.06635
 22 Cl    0.39957   -0.00666    0.01858
 23 Cl    0.00000   -0.00911    0.00430
 24 Cs   -0.03494    0.00591   -0.03828
 25 Pb    0.00000   -0.01657   -0.00361
 26 Cl    0.00000   -0.00109    0.06440
 27 Cl    0.03263    0.01217    0.01363
 28 Cl    0.00000    0.00252   -0.00861
 29 Cs   -0.02271    0.02466    0.07636
 30 Pb    0.00000   -0.00385   -0.00187
 31 Cl    0.00000   -0.01603   -0.05337
 32 Cl    0.26593    0.01119    0.00016
 33 Cl    0.00000    0.01151   -0.00376
 34 Cs   -0.06173   -0.00710   -0.07244
 35 Pb    0.00000    0.02042    0.00137
 36 Cl    0.00000   -0.00445    0.05261
 37 Cl    0.04412   -0.00876   -0.00334
 38 Cl    0.00000    0.00063    0.00089

System changes: positions 

Initializing position-dependent things.

Density initialized from wave functions
                                           
                                           
                                           
                                           
             Cl     Pb     Cl     Pb       
                                           
                  Cl            Cl         
         Cl     Pb  Cl Cl     Pb  Cl       
                                           
           Cs Cl         Cs Cl             
                                           
             Cl Cl  Pb     Cl Cl  Pb       
                                           
       Cs         Cl  Cs        Cl         
                                           
         Cl     Pb  Cl Cl     Pb  Cl       
           Cs            Cs Cl             
                                           
                Cl            Cl           
                                           
       Cs             Cs                   
                                           
                                           
                                           
                                           

Atomic positions and initial magnetic moments

Positions:
   0 Cs    -0.137595   -0.025303   -0.106680    ( 0.0000,  0.0000,  0.0000)
   1 Pb     2.851221    2.922191    2.886884    ( 0.0000,  0.0000,  0.0000)
   2 Cl     0.030475    2.812954    2.837657    ( 0.0000,  0.0000,  0.0000)
   3 Cl     2.851221    2.315388    0.472174    ( 0.0000,  0.0000,  0.0000)
   4 Cs    -0.112441   -0.000155    5.815098    ( 0.0000,  0.0000,  0.0000)
   5 Pb     2.851221    2.845345    8.543688    ( 0.0000,  0.0000,  0.0000)
   6 Cl     2.851221    2.815311    5.687342    ( 0.0000,  0.0000,  0.0000)
   7 Cl     0.005750    2.835082    8.568171    ( 0.0000,  0.0000,  0.0000)
   8 Cl     2.851221    0.005937    8.569222    ( 0.0000,  0.0000,  0.0000)
   9 Cs    -0.093065    5.728500   -0.059180    ( 0.0000,  0.0000,  0.0000)
  10 Pb     2.851221    8.491241    2.849187    ( 0.0000,  0.0000,  0.0000)
  11 Cl     2.851221    8.591107    0.026262    ( 0.0000,  0.0000,  0.0000)
  12 Cl     0.026078    8.586935    2.839516    ( 0.0000,  0.0000,  0.0000)
  13 Cl     2.851221    5.699608    2.838774    ( 0.0000,  0.0000,  0.0000)
  14 Cs    -0.063871    5.701800    5.763760    ( 0.0000,  0.0000,  0.0000)
  15 Pb     2.851221    8.557302    8.557342    ( 0.0000,  0.0000,  0.0000)
  16 Cl     2.851221    8.586151    5.675814    ( 0.0000,  0.0000,  0.0000)
  17 Cl    -0.001186    8.568737    8.565139    ( 0.0000,  0.0000,  0.0000)
  18 Cl     2.851221    5.694521    8.573487    ( 0.0000,  0.0000,  0.0000)
  19 Cs     5.840037   -0.025303   -0.106680    ( 0.0000,  0.0000,  0.0000)
  20 Pb     8.553664    2.846241    2.848817    ( 0.0000,  0.0000,  0.0000)
  21 Cl     8.553664    2.835599   -0.000730    ( 0.0000,  0.0000,  0.0000)
  22 Cl     5.671968    2.812954    2.837657    ( 0.0000,  0.0000,  0.0000)
  23 Cl     8.553664   -0.001233    2.839660    ( 0.0000,  0.0000,  0.0000)
  24 Cs     5.814883   -0.000155    5.815098    ( 0.0000,  0.0000,  0.0000)
  25 Pb     8.553664    2.856732    8.556766    ( 0.0000,  0.0000,  0.0000)
  26 Cl     8.553664    2.834602    5.703921    ( 0.0000,  0.0000,  0.0000)
  27 Cl     5.696693    2.835082    8.568171    ( 0.0000,  0.0000,  0.0000)
  28 Cl     8.553664   -0.000704    8.563035    ( 0.0000,  0.0000,  0.0000)
  29 Cs     5.795508    5.728500   -0.059180    ( 0.0000,  0.0000,  0.0000)
  30 Pb     8.553664    8.556949    2.853117    ( 0.0000,  0.0000,  0.0000)
  31 Cl     8.553664    8.567623   -0.000561    ( 0.0000,  0.0000,  0.0000)
  32 Cl     5.676364    8.586935    2.839516    ( 0.0000,  0.0000,  0.0000)
  33 Cl     8.553664    5.701821    2.839063    ( 0.0000,  0.0000,  0.0000)
  34 Cs     5.766314    5.701800    5.763760    ( 0.0000,  0.0000,  0.0000)
  35 Pb     8.553664    8.547083    8.551610    ( 0.0000,  0.0000,  0.0000)
  36 Cl     8.553664    8.569490    5.703367    ( 0.0000,  0.0000,  0.0000)
  37 Cl     5.703629    8.568737    8.565139    ( 0.0000,  0.0000,  0.0000)
  38 Cl     8.553664    5.701990    8.565058    ( 0.0000,  0.0000,  0.0000)

Unit cell:
           periodic     x           y           z      points  spacing
  1. axis:    yes   11.404885    0.000000    0.000000    70     0.1629
  2. axis:    yes    0.000000   11.404885    0.000000    70     0.1629
  3. axis:    yes    0.000000    0.000000   11.404885    70     0.1629

  Lengths:  11.404885  11.404885  11.404885
  Angles:   90.000000  90.000000  90.000000

Effective grid spacing dv^(1/3) = 0.1629

     iter     time        total  log10-change:
                         energy   eigst   dens
iter:   1 05:38:09  -136.103579   -3.37
iter:   2 05:38:48  -136.099499   -4.68  -3.07
iter:   3 05:39:28  -136.085474c  -3.91  -3.14
iter:   4 05:40:07  -136.089021c  -5.42  -3.32
iter:   5 05:40:47  -136.088850c  -5.75  -3.58
iter:   6 05:41:29  -136.088911c  -5.52  -3.68
iter:   7 05:42:09  -136.088327c  -6.00  -3.77
iter:   8 05:42:49  -136.088107c  -6.52  -4.15c
iter:   9 05:43:29  -136.088045c  -7.26  -4.22c
iter:  10 05:44:08  -136.088178c  -6.72  -4.24c
iter:  11 05:44:48  -136.088138c  -6.87  -4.52c
iter:  12 05:45:33  -136.088154c  -8.03c -4.61c

Converged after 12 iterations.

Dipole moment: (45.181862, 6.624157, 25.183054) |e|*Ang

Energy contributions relative to reference atoms: (reference = -6521360.154902)

Kinetic:       +211.178986
Potential:     -217.855295
External:        +0.000000
XC:            -129.350654
Entropy (-ST):   -0.182941
Local:           +0.030280
SIC:             +0.000000
--------------------------
Free energy:   -136.179624
Extrapolated:  -136.088154

Showing only first 2 kpts
 Kpt  Band  Eigenvalues  Occupancy
  0   170      1.24278    2.00000
  0   171      1.58977    2.00000
  0   172      4.57736    0.89901
  0   173      4.93777    0.04347

  1   170      1.25638    2.00000
  1   171      1.57821    2.00000
  1   172      4.57047    0.93321
  1   173      4.93807    0.04334


Fermi level: 4.55709

Gap: 2.981 eV
Transition (v -> c):
  (s=0, k=0, n=171, [0.25, -0.25, -0.25]) -> (s=0, k=1, n=172, [0.25, -0.25, 0.25])
Direct/indirect transitions are different
Direct gap: 2.988 eV
Transition at:
Forces in eV/Ang:
  0 Cs    0.05114    0
Forces in eV/Ang:
  0 Cs    0.05286    0.00636    0.05154
  1 Pb    0.00000   -0.05432    1.10246
  2 Cl   -0.34984   -0.00369    0.03357
  3 Cl    0.00000   -0.39633   -2.16704
  4 Cs    0.03354    0.00443   -0.03803
  5 Pb    0.00000   -0.08031   -0.06209
  6 Cl   -0.00000   -0.07281    1.08417
  7 Cl   -0.03391    0.01263    0.00743
  8 Cl   -0.00000    0.00100   -0.04271
  9 Cs    0.02454    0.01963    0.07362
 10 Pb    0.00000    0.48312    0.00657
 11 Cl   -0.00000   -0.01511   -0.24714
 12 Cl   -0.24697    0.01118    0.00095
 13 Cl    0.00000    0.05070   -0.07534
 14 Cs    0.05636   -0.00518   -0.06822
 15 Pb    0.00000    0.03514    0.00207
 16 Cl   -0.00000    0.00027    0.25685
 17 Cl   -0.04223   -0.00941   -0.00433
 18 Cl   -0.00000   -0.01484    0.03785
 19 Cs   -0.05286    0.00636    0.05154
 20 Pb    0.00000    0.00191   -0.00566
 21 Cl    0.00000    0.00670   -0.06299
 22 Cl    0.34984   -0.00369    0.03357
 23 Cl    0.00000   -0.00754    0.00528
 24 Cs   -0.03354    0.00443   -0.03803
 25 Pb    0.00000   -0.01415    0.00279
 26 Cl    0.00000   -0.00057    0.06189
 27 Cl    0.03391    0.01263    0.00743
 28 Cl    0.00000    0.00400   -0.01036
 29 Cs   -0.02454    0.01963    0.07362
 30 Pb    0.00000    0.00040   -0.00523
 31 Cl    0.00000   -0.01786   -0.04988
 32 Cl    0.24697    0.01118    0.00095
 33 Cl    0.00000    0.00978   -0.00387
 34 Cs   -0.05636   -0.00518   -0.06822
 35 Pb    0.00000    0.01789    0.00443
 36 Cl    0.00000   -0.00454    0.04956
 37 Cl    0.04223   -0.00941   -0.00433
 38 Cl    0.00000   -0.00108    0.00055

System changes: positions 

Initializing position-dependent things.

Density initialized from wave functions
                                           
                                           
                                           
                                           
             Cl     Pb     Cl     Pb       
                                           
                  Cl            Cl         
         Cl     Pb  Cl Cl     Pb  Cl       
                                           
           Cs Cl         Cs Cl             
                                           
             Cl Cl  Pb     Cl Cl  Pb       
                                           
       Cs         Cl  Cs        Cl         
                                           
         Cl     Pb  Cl Cl     Pb  Cl       
           Cs            Cs Cl             
                                           
                Cl            Cl           
                                           
       Cs             Cs                   
                                           
                                           
                                           
                                           

Atomic positions and initial magnetic moments

Positions:
   0 Cs    -0.136382   -0.025847   -0.104844    ( 0.0000,  0.0000,  0.0000)
   1 Pb     2.851221    2.921821    2.914821    ( 0.0000,  0.0000,  0.0000)
   2 Cl     0.022400    2.813109    2.838246    ( 0.0000,  0.0000,  0.0000)
   3 Cl     2.851221    2.290680    0.434746    ( 0.0000,  0.0000,  0.0000)
   4 Cs    -0.111438   -0.000509    5.813533    ( 0.0000,  0.0000,  0.0000)
   5 Pb     2.851221    2.843554    8.541633    ( 0.0000,  0.0000,  0.0000)
   6 Cl     2.851221    2.813806    5.712545    ( 0.0000,  0.0000,  0.0000)
   7 Cl     0.005146    2.835471    8.568513    ( 0.0000,  0.0000,  0.0000)
   8 Cl     2.851221    0.006133    8.568410    ( 0.0000,  0.0000,  0.0000)
   9 Cs    -0.092766    5.729632   -0.057122    ( 0.0000,  0.0000,  0.0000)
  10 Pb     2.851221    8.502658    2.849335    ( 0.0000,  0.0000,  0.0000)
  11 Cl     2.851221    8.590525    0.020423    ( 0.0000,  0.0000,  0.0000)
  12 Cl     0.020224    8.586986    2.839497    ( 0.0000,  0.0000,  0.0000)
  13 Cl     2.851221    5.700717    2.836800    ( 0.0000,  0.0000,  0.0000)
  14 Cs    -0.062635    5.702140    5.761809    ( 0.0000,  0.0000,  0.0000)
  15 Pb     2.851221    8.558089    8.557389    ( 0.0000,  0.0000,  0.0000)
  16 Cl     2.851221    8.585952    5.681879    ( 0.0000,  0.0000,  0.0000)
  17 Cl    -0.002166    8.568428    8.565083    ( 0.0000,  0.0000,  0.0000)
  18 Cl     2.851221    5.694026    8.574487    ( 0.0000,  0.0000,  0.0000)
  19 Cs     5.838824   -0.025847   -0.104844    ( 0.0000,  0.0000,  0.0000)
  20 Pb     8.553664    2.846318    2.848679    ( 0.0000,  0.0000,  0.0000)
  21 Cl     8.553664    2.835849   -0.002170    ( 0.0000,  0.0000,  0.0000)
  22 Cl     5.680042    2.813109    2.838246    ( 0.0000,  0.0000,  0.0000)
  23 Cl     8.553664   -0.001420    2.839740    ( 0.0000,  0.0000,  0.0000)
  24 Cs     5.813881   -0.000509    5.813533    ( 0.0000,  0.0000,  0.0000)
  25 Pb     8.553664    2.856371    8.556831    ( 0.0000,  0.0000,  0.0000)
  26 Cl     8.553664    2.834689    5.705332    ( 0.0000,  0.0000,  0.0000)
  27 Cl     5.697297    2.835471    8.568513    ( 0.0000,  0.0000,  0.0000)
  28 Cl     8.553664   -0.000630    8.562852    ( 0.0000,  0.0000,  0.0000)
  29 Cs     5.795209    5.729632   -0.057122    ( 0.0000,  0.0000,  0.0000)
  30 Pb     8.553664    8.556933    2.853036    ( 0.0000,  0.0000,  0.0000)
  31 Cl     8.553664    8.567127   -0.001702    ( 0.0000,  0.0000,  0.0000)
  32 Cl     5.682219    8.586986    2.839497    ( 0.0000,  0.0000,  0.0000)
  33 Cl     8.553664    5.702072    2.838935    ( 0.0000,  0.0000,  0.0000)
  34 Cs     5.765078    5.702140    5.761809    ( 0.0000,  0.0000,  0.0000)
  35 Pb     8.553664    8.547538    8.551675    ( 0.0000,  0.0000,  0.0000)
  36 Cl     8.553664    8.569289    5.704498    ( 0.0000,  0.0000,  0.0000)
  37 Cl     5.704609    8.568428    8.565083    ( 0.0000,  0.0000,  0.0000)
  38 Cl     8.553664    5.701991    8.565114    ( 0.0000,  0.0000,  0.0000)

Unit cell:
           periodic     x           y           z      points  spacing
  1. axis:    yes   11.404885    0.000000    0.000000    70     0.1629
  2. axis:    yes    0.000000   11.404885    0.000000    70     0.1629
  3. axis:    yes    0.000000    0.000000   11.404885    70     0.1629

  Lengths:  11.404885  11.404885  11.404885
  Angles:   90.000000  90.000000  90.000000

Effective grid spacing dv^(1/3) = 0.1629

     iter     time        total  log10-change:
                         energy   eigst   dens
iter:   1 06:22:38  -136.257204   -3.18
iter:   2 06:23:16  -136.251919   -4.47  -2.98
iter:   3 06:23:56  -136.233554c  -3.63  -3.05
iter:   4 06:24:35  -136.237545c  -5.08  -3.22
iter:   5 06:25:15  -136.237394c  -5.75  -3.49
iter:   6 06:25:54  -136.237554c  -5.33  -3.58
iter:   7 06:26:35  -136.236786c  -5.89  -3.68
iter:   8 06:27:14  -136.236395c  -6.26  -4.03c
iter:   9 06:27:53  -136.236331c  -6.90  -4.14c
iter:  10 06:28:32  -136.236493c  -6.56  -4.16c
iter:  11 06:29:11  -136.236412c  -6.79  -4.46c
iter:  12 06:29:50  -136.236439c  -8.02c -4.54c

Converged after 12 iterations.

Dipole moment: (46.738486, 6.886302, 23.859691) |e|*Ang

Energy contributions relative to reference atoms: (reference = -6521360.154902)

Kinetic:       +209.048468
Potential:     -216.160181
External:        +0.000000
XC:            -129.068079
Entropy (-ST):   -0.175956
Local:           +0.031332
SIC:             +0.000000
--------------------------
Free energy:   -136.324417
Extrapolated:  -136.236439

Showing only first 2 kpts
 Kpt  Band  Eigenvalues  Occupancy
  0   170      1.21513    2.00000
  0   171      1.54909    2.00000
  0   172      4.55309    0.91618
  0   173      4.93999    0.03469

  1   170      1.22725    2.00000
  1   171      1.53732    2.00000
  1   172      4.54663    0.94833
  1   173      4.94062    0.03447


Fermi level: 4.53629

Gap: 2.998 eV
Transition (v -> c):
  (s=0, k=0, n=171, [0.25, -0.25, -0.25]) -> (s=0, k=1, n=172, [0.25, -0.25, 0.25])
Direct/indirect transitions are d
Forces in eV/Ang:
  0 Cs    0.05982    0.04962    0.01415
  1 Pb    0.00000    0.534
Forces in eV/Ang:
  0 Cs    0.06135    0.01237    0.05121
  1 Pb    0.00000   -0.19318    0.53062
  2 Cl   -0.28096    0.00075    0.04398
  3 Cl    0.00000   -0.24306   -1.57035
  4 Cs    0.02934    0.00023   -0.03569
  5 Pb    0.00000   -0.08389    0.05137
  6 Cl   -0.00000   -0.05817    0.92656
  7 Cl   -0.03563    0.01327    0.00049
  8 Cl    0.00000   -0.00778   -0.05725
  9 Cs    0.02823    0.01652    0.07252
 10 Pb    0.00000    0.46683    0.00125
 11 Cl    0.00000   -0.01687   -0.20961
 12 Cl   -0.21063    0.00902    0.00276
 13 Cl    0.00000    0.04129   -0.05663
 14 Cs    0.05105    0.00012   -0.06482
 15 Pb    0.00000    0.03261    0.00568
 16 Cl   -0.00000   -0.00151    0.21933
 17 Cl   -0.03886   -0.00973   -0.00610
 18 Cl    0.00000   -0.01121    0.03415
 19 Cs   -0.06135    0.01237    0.05121
 20 Pb    0.00000    0.00066   -0.00594
 21 Cl    0.00000    0.00805   -0.05573
 22 Cl    0.28096    0.00075    0.04398
 23 Cl    0.00000   -0.00590    0.00734
 24 Cs   -0.02934    0.00023   -0.03569
 25 Pb    0.00000   -0.01256    0.00517
 26 Cl    0.00000   -0.00005    0.05447
 27 Cl    0.03563    0.01327    0.00049
 28 Cl    0.00000    0.00356   -0.01272
 29 Cs   -0.02823    0.01652    0.07252
 30 Pb    0.00000    0.00286   -0.00682
 31 Cl    0.00000   -0.01914   -0.04459
 32 Cl    0.21063    0.00902    0.00276
 33 Cl    0.00000    0.00802   -0.00254
 34 Cs   -0.05105    0.00012   -0.06482
 35 Pb    0.00000    0.01599    0.00636
 36 Cl    0.00000   -0.00463    0.04426
 37 Cl    0.03886   -0.00973   -0.00610
 38 Cl    0.00000   -0.00074   -0.00091

System changes: positions 

Initializing position-dependent things.

Density initialized from wave functions
                                           
                                           
                                           
                                           
             Cl     Pb     Cl     Pb       
                                           
                  Cl            Cl         
         Cl     Pb  Cl Cl     Pb  Cl       
                                           
           Cs Cl         Cs Cl             
                                           
             Cl Cl  Pb     Cl Cl  Pb       
                                           
       Cs         Cl  Cs        Cl         
                Pb                         
         Cl         Cl Cl     Pb  Cl       
           Cs            Cs Cl             
                                           
                Cl            Cl           
                                           
       Cs             Cs                   
                                           
                                           
                                           
                                           

Atomic positions and initial magnetic moments

Positions:
   0 Cs    -0.133787   -0.026428   -0.101594    ( 0.0000,  0.0000,  0.0000)
   1 Pb     2.851221    2.917034    2.950237    ( 0.0000,  0.0000,  0.0000)
   2 Cl     0.008950    2.813466    2.839811    ( 0.0000,  0.0000,  0.0000)
   3 Cl     2.851221    2.253561    0.375297    ( 0.0000,  0.0000,  0.0000)
   4 Cs    -0.109746   -0.001131    5.810892    ( 0.0000,  0.0000,  0.0000)
   5 Pb     2.851221    2.839963    8.541518    ( 0.0000,  0.0000,  0.0000)
   6 Cl     2.851221    2.811210    5.756315    ( 0.0000,  0.0000,  0.0000)
   7 Cl     0.003820    2.836203    8.568883    ( 0.0000,  0.0000,  0.0000)
   8 Cl     2.851221    0.006124    8.566292    ( 0.0000,  0.0000,  0.0000)
   9 Cs    -0.091978    5.731447   -0.053344    ( 0.0000,  0.0000,  0.0000)
  10 Pb     2.851221    8.524010    2.849459    ( 0.0000,  0.0000,  0.0000)
  11 Cl     2.851221    8.589423    0.010430    ( 0.0000,  0.0000,  0.0000)
  12 Cl     0.010166    8.587103    2.839540    ( 0.0000,  0.0000,  0.0000)
  13 Cl     2.851221    5.702819    2.833613    ( 0.0000,  0.0000,  0.0000)
  14 Cs    -0.060394    5.702768    5.758316    ( 0.0000,  0.0000,  0.0000)
  15 Pb     2.851221    8.559550    8.557600    ( 0.0000,  0.0000,  0.0000)
  16 Cl     2.851221    8.585594    5.692312    ( 0.0000,  0.0000,  0.0000)
  17 Cl    -0.003948    8.567858    8.564894    ( 0.0000,  0.0000,  0.0000)
  18 Cl     2.851221    5.693289    8.576248    ( 0.0000,  0.0000,  0.0000)
  19 Cs     5.836230   -0.026428   -0.101594    ( 0.0000,  0.0000,  0.0000)
  20 Pb     8.553664    2.846414    2.848411    ( 0.0000,  0.0000,  0.0000)
  21 Cl     8.553664    2.836337   -0.004722    ( 0.0000,  0.0000,  0.0000)
  22 Cl     5.693493    2.813466    2.839811    ( 0.0000,  0.0000,  0.0000)
  23 Cl     8.553664   -0.001730    2.839983    ( 0.0000,  0.0000,  0.0000)
  24 Cs     5.812189   -0.001131    5.810892    ( 0.0000,  0.0000,  0.0000)
  25 Pb     8.553664    2.855736    8.557027    ( 0.0000,  0.0000,  0.0000)
  26 Cl     8.553664    2.834830    5.707822    ( 0.0000,  0.0000,  0.0000)
  27 Cl     5.698623    2.836203    8.568883    ( 0.0000,  0.0000,  0.0000)
  28 Cl     8.553664   -0.000499    8.562391    ( 0.0000,  0.0000,  0.0000)
  29 Cs     5.794421    5.731447   -0.053344    ( 0.0000,  0.0000,  0.0000)
  30 Pb     8.553664    8.556991    2.852812    ( 0.0000,  0.0000,  0.0000)
  31 Cl     8.553664    8.566155   -0.003736    ( 0.0000,  0.0000,  0.0000)
  32 Cl     5.692277    8.587103    2.839540    ( 0.0000,  0.0000,  0.0000)
  33 Cl     8.553664    5.702497    2.838747    ( 0.0000,  0.0000,  0.0000)
  34 Cs     5.762837    5.702768    5.758316    ( 0.0000,  0.0000,  0.0000)
  35 Pb     8.553664    8.548339    8.551878    ( 0.0000,  0.0000,  0.0000)
  36 Cl     8.553664    8.568937    5.706515    ( 0.0000,  0.0000,  0.0000)
  37 Cl     5.706390    8.567858    8.564894    ( 0.0000,  0.0000,  0.0000)
  38 Cl     8.553664    5.701999    8.565156    ( 0.0000,  0.0000,  0.0000)

Unit cell:
           periodic     x           y           z      points  spacing
  1. axis:    yes   11.404885    0.000000    0.000000    70     0.1629
  2. axis:    yes    0.000000   11.404885    0.000000    70     0.1629
  3. axis:    yes    0.000000    0.000000   11.404885    70     0.1629

  Lengths:  11.404885  11.404885  11.404885
  Angles:   90.000000  90.000000  90.000000

Effective grid spacing dv^(1/3) = 0.1629

     iter     time        total  log10-change:
                         energy   eigst   dens
iter:   1 07:04:05  -136.426333   -2.86
iter:   2 07:04:44  -136.418726   -4.09  -2.84
iter:   3 07:05:23  -136.392533c  -3.31  -2.90
iter:   4 07:06:01  -136.396250c  -4.67  -3.10
iter:   5 07:06:40  -136.396092c  -5.75  -3.34
iter:   6 07:07:19  -136.395876c  -5.04  -3.43
iter:   7 07:07:58  -136.395179c  -5.90  -3.60
iter:   8 07:08:38  -136.394485c  -5.92  -3.85
iter:   9 07:09:19  -136.394389c  -6.29  -4.06c
iter:  10 07:09:58  -136.394593c  -6.24  -4.07c
iter:  11 07:10:37  -136.394501c  -7.10  -4.37c
iter:  12 07:11:16  -136.394416c  -6.98  -4.47c
iter:  13 07:11:55  -136.394444c  -7.75c -4.54c

Converged after 13 iterations.

Dipole moment: (49.328765, 7.276417, 21.902250) |e|*Ang

Energy contributions relative to reference atoms: (reference = -6521360.154902)

Kinetic:       +206.529514
Potential:     -214.160058
External:        +0.000000
XC:            -128.712846
Entropy (-ST):   -0.164920
Local:           +0.031405
SIC:             +0.000000
--------------------------
Free energy:   -136.476904
Extrapolated:  -136.394444

Showing only first 2 kpts
 Kpt  Band  Eigenvalues  Occupancy
  0   170      1.17236    2.00000
  0   171      1.50438    2.00000
  0   172      4.50715    0.94046
  0   173      4.94393    0.02226

  1   170      1.17984    2.00000
  1   171      1.49346    2.00000
  1   172      4.50097    0.97127
  1   173      4.94515    0.02199


Fermi level: 4.49523

Gap: 2.997 eV
Transition (v -> c):
  (s=0, k=0, n=171, [0.25, -0.25, -0.25]) -> (s=0, k=1, n=172, [0.25, -0.
Forces in eV/Ang:
  0 Cs    0.07094    0.04969    0.02028
  1 Pb    0.00000   -0.00601   -0.33956
  2 Cl   -0.17124    0.04665  
Forces in eV/Ang:
  0 Cs    0.07227    0.01842    0.05121
  1 Pb    0.00000   -0.32610   -0.00731
  2 Cl   -0.16828    0.00431    0.05130
  3 Cl    0.00000   -0.08057   -0.93086
  4 Cs    0.02477   -0.00636   -0.03335
  5 Pb    0.00000   -0.08325    0.22314
  6 Cl    0.00000   -0.03672    0.64301
  7 Cl   -0.03919    0.01406   -0.00662
  8 Cl    0.00000   -0.02675   -0.07590
  9 Cs    0.03493    0.01392    0.07209
 10 Pb    0.00000    0.42198   -0.00309
 11 Cl    0.00000   -0.01694   -0.13798
 12 Cl   -0.14190    0.00688    0.00563
 13 Cl    0.00000    0.03490   -0.03561
 14 Cs    0.04563    0.00882   -0.06078
 15 Pb    0.00000    0.02511    0.00753
 16 Cl    0.00000   -0.00438    0.14728
 17 Cl   -0.03176   -0.00983   -0.00895
 18 Cl    0.00000   -0.00159    0.03099
 19 Cs   -0.07227    0.01842    0.05121
 20 Pb    0.00000   -0.00121   -0.00399
 21 Cl    0.00000    0.00961   -0.03949
 22 Cl    0.16828    0.00431    0.05130
 23 Cl    0.00000   -0.00340    0.01053
 24 Cs   -0.02477   -0.00636   -0.03335
 25 Pb    0.00000   -0.00909    0.00537
 26 Cl    0.00000    0.00077    0.03818
 27 Cl    0.03919    0.01406   -0.00662
 28 Cl    0.00000    0.00138   -0.01613
 29 Cs   -0.03493    0.01392    0.07209
 30 Pb    0.00000    0.00596   -0.00612
 31 Cl    0.00000   -0.02032   -0.03340
 32 Cl    0.14190    0.00688    0.00563
 33 Cl    0.00000    0.00528    0.00010
 34 Cs   -0.04563    0.00882   -0.06078
 35 Pb    0.00000    0.01196    0.00639
 36 Cl    0.00000   -0.00458    0.03288
 37 Cl    0.03176   -0.00983   -0.00895
 38 Cl    0.00000    0.00114   -0.00353

System changes: positions 

Initializing position-dependent things.

Density initialized from wave functions
                                           
                                           
                                           
                                           
             Cl     Pb     Cl     Pb       
                                           
                  Cl            Cl         
         Cl     Pb  Cl Cl     Pb  Cl       
                                           
           Cs Cl         Cs Cl             
                                           
             Cl Cl  Pb     Cl Cl  Pb       
                                           
       Cs         Cl  Cs        Cl         
                Pb                         
         Cl         Cl Cl     Pb  Cl       
           Cs            Cs Cl             
                                           
                Cl            Cl           
                                           
       Cs             Cs                   
                                           
                                           
                                           
                                           

Atomic positions and initial magnetic moments

Positions:
   0 Cs    -0.130603   -0.026718   -0.098158    ( 0.0000,  0.0000,  0.0000)
   1 Pb     2.851221    2.908003    2.973896    ( 0.0000,  0.0000,  0.0000)
   2 Cl    -0.003031    2.813918    2.841839    ( 0.0000,  0.0000,  0.0000)
   3 Cl     2.851221    2.220571    0.323133    ( 0.0000,  0.0000,  0.0000)
   4 Cs    -0.108063   -0.001873    5.808216    ( 0.0000,  0.0000,  0.0000)
   5 Pb     2.851221    2.835946    8.546232    ( 0.0000,  0.0000,  0.0000)
   6 Cl     2.851221    2.808782    5.797647    ( 0.0000,  0.0000,  0.0000)
   7 Cl     0.002181    2.837018    8.569049    ( 0.0000,  0.0000,  0.0000)
   8 Cl     2.851221    0.005544    8.563352    ( 0.0000,  0.0000,  0.0000)
   9 Cs    -0.090864    5.733216   -0.049252    ( 0.0000,  0.0000,  0.0000)
  10 Pb     2.851221    8.546548    2.849471    ( 0.0000,  0.0000,  0.0000)
  11 Cl     2.851221    8.588230    0.001258    ( 0.0000,  0.0000,  0.0000)
  12 Cl     0.000846    8.587230    2.839681    ( 0.0000,  0.0000,  0.0000)
  13 Cl     2.851221    5.705174    2.830653    ( 0.0000,  0.0000,  0.0000)
  14 Cs    -0.058041    5.703574    5.754646    ( 0.0000,  0.0000,  0.0000)
  15 Pb     2.851221    8.561004    8.557902    ( 0.0000,  0.0000,  0.0000)
  16 Cl     2.851221    8.585172    5.701965    ( 0.0000,  0.0000,  0.0000)
  17 Cl    -0.005742    8.567240    8.564590    ( 0.0000,  0.0000,  0.0000)
  18 Cl     2.851221    5.692786    8.578085    ( 0.0000,  0.0000,  0.0000)
  19 Cs     5.833045   -0.026718   -0.098158    ( 0.0000,  0.0000,  0.0000)
  20 Pb     8.553664    2.846459    2.848163    ( 0.0000,  0.0000,  0.0000)
  21 Cl     8.553664    2.836902   -0.007138    ( 0.0000,  0.0000,  0.0000)
  22 Cl     5.705474    2.813918    2.841839    ( 0.0000,  0.0000,  0.0000)
  23 Cl     8.553664   -0.002010    2.840358    ( 0.0000,  0.0000,  0.0000)
  24 Cs     5.810506   -0.001873    5.808216    ( 0.0000,  0.0000,  0.0000)
  25 Pb     8.553664    2.855127    8.557260    ( 0.0000,  0.0000,  0.0000)
  26 Cl     8.553664    2.834978    5.710170    ( 0.0000,  0.0000,  0.0000)
  27 Cl     5.700262    2.837018    8.569049    ( 0.0000,  0.0000,  0.0000)
  28 Cl     8.553664   -0.000406    8.561759    ( 0.0000,  0.0000,  0.0000)
  29 Cs     5.793307    5.733216   -0.049252    ( 0.0000,  0.0000,  0.0000)
  30 Pb     8.553664    8.557151    2.852560    ( 0.0000,  0.0000,  0.0000)
  31 Cl     8.553664    8.565053   -0.005705    ( 0.0000,  0.0000,  0.0000)
  32 Cl     5.701596    8.587230    2.839681    ( 0.0000,  0.0000,  0.0000)
  33 Cl     8.553664    5.702896    2.838617    ( 0.0000,  0.0000,  0.0000)
  34 Cs     5.760484    5.703574    5.754646    ( 0.0000,  0.0000,  0.0000)
  35 Pb     8.553664    8.549119    8.552125    ( 0.0000,  0.0000,  0.0000)
  36 Cl     8.553664    8.568573    5.708462    ( 0.0000,  0.0000,  0.0000)
  37 Cl     5.708185    8.567240    8.564590    ( 0.0000,  0.0000,  0.0000)
  38 Cl     8.553664    5.702054    8.565120    ( 0.0000,  0.0000,  0.0000)

Unit cell:
           periodic     x           y           z      points  spacing
  1. axis:    yes   11.404885    0.000000    0.000000    70     0.1629
  2. axis:    yes    0.000000   11.404885    0.000000    70     0.1629
  3. axis:    yes    0.000000    0.000000   11.404885    70     0.1629

  Lengths:  11.404885  11.404885  11.404885
  Angles:   90.000000  90.000000  90.000000

Effective grid spacing dv^(1/3) = 0.1629

     iter     time        total  log10-change:
                         energy   eigst   dens
iter:   1 07:43:44  -136.498759   -3.01
iter:   2 07:44:22  -136.494911   -4.21  -2.94
iter:   3 07:45:02  -136.480607c  -3.58  -2.99
iter:   4 07:45:42  -136.482427c  -4.95  -3.28
iter:   5 07:46:21  -136.482641c  -5.86  -3.46
iter:   6 07:46:59  -136.482156c  -5.30  -3.56
iter:   7 07:47:38  -136.481782c  -6.22  -3.81
iter:   8 07:48:17  -136.481557c  -6.24  -4.07c
iter:   9 07:48:56  -136.481687c  -6.64  -4.22c
iter:  10 07:49:35  -136.481641c  -6.62  -4.30c
iter:  11 07:50:14  -136.481619c  -7.84c -4.66c

Converged after 11 iterations.

Dipole moment: (51.558994, 7.689947, 20.440040) |e|*Ang

Energy contributions relative to reference atoms: (reference = -6521360.154902)

Kinetic:       +204.877365
Potential:     -212.846538
External:        +0.000000
XC:            -128.466028
Entropy (-ST):   -0.155692
Local:           +0.031429
SIC:             +0.000000
--------------------------
Free energy:   -136.559465
Extrapolated:  -136.481619

Showing only first 2 kpts
 Kpt  Band  Eigenvalues  Occupancy
  0   170      1.14123    2.00000
  0   171      1.48023    2.00000
  0   172      4.45493    0.95779
  0   173      4.94805    0.01318

  1   170      1.14270    2.00000
  1   171      1.47069    2.00000
  1   172      4.44856    0.98961
  1   173      4.94971    0.01296


Fermi level: 4.44649

Gap: 2.968 eV
Transition (v -> c):
  (s=0, k=0, n=171, [0.25, -0
Forces in eV/Ang:
  0 Cs    0.07667    0.04459    0.02678
  1 Pb    0.00000   -0.26914   -0.37928
  2 Cl   -0.07127    0.04943    0.00612
  3 Cl    0.00000   -0.55724    0.
Forces in eV/Ang:
  0 Cs    0.07755    0.02486    0.04569
  1 Pb    0.00000   -0.37248   -0.26943
  2 Cl   -0.06967    0.00619    0.05399
  3 Cl    0.00000    0.01253   -0.55709
  4 Cs    0.01879   -0.00936   -0.02676
  5 Pb    0.00000   -0.07854    0.38262
  6 Cl    0.00000   -0.02074    0.36092
  7 Cl   -0.04146    0.01361   -0.00730
  8 Cl    0.00000   -0.04206   -0.08720
  9 Cs    0.03847    0.01048    0.06771
 10 Pb    0.00000    0.36520   -0.00921
 11 Cl    0.00000   -0.01486   -0.07644
 12 Cl   -0.08348    0.00709    0.00575
 13 Cl    0.00000    0.01643   -0.02170
 14 Cs    0.04027    0.01332   -0.05412
 15 Pb    0.00000    0.01472    0.01218
 16 Cl    0.00000   -0.00437    0.08447
 17 Cl   -0.02437   -0.00944   -0.00889
 18 Cl    0.00000    0.00759    0.03290
 19 Cs   -0.07755    0.02486    0.04569
 20 Pb    0.00000   -0.00222   -0.00557
 21 Cl    0.00000    0.01050   -0.02384
 22 Cl    0.06967    0.00619    0.05399
 23 Cl    0.00000   -0.00123    0.01067
 24 Cs   -0.01879   -0.00936   -0.02676
 25 Pb    0.00000   -0.00432    0.00909
 26 Cl    0.00000    0.00111    0.02272
 27 Cl    0.04146    0.01361   -0.00730
 28 Cl    0.00000    0.00011   -0.01614
 29 Cs   -0.03847    0.01048    0.06771
 30 Pb    0.00000    0.00821   -0.00705
 31 Cl    0.00000   -0.02086   -0.02170
 32 Cl    0.08348    0.00709    0.00575
 33 Cl    0.00000    0.00290   -0.00019
 34 Cs   -0.04027    0.01332   -0.05412
 35 Pb    0.00000    0.00660    0.00794
 36 Cl    0.00000   -0.00431    0.02128
 37 Cl    0.02437   -0.00944   -0.00889
 38 Cl    0.00000    0.00217   -0.00322

System changes: positions 

Initializing position-dependent things.

Density initialized from wave functions
                                           
                                           
                                           
                                           
             Cl     Pb     Cl     Pb       
                                           
                  Cl            Cl         
         Cl     Pb  Cl Cl     Pb  Cl       
                                           
           Cs Cl         Cs Cl             
                                           
             Cl Cl  Pb     Cl Cl  Pb       
                                           
       Cs         Cl  Cs        Cl         
                Pb                         
         Cl         Cl Cl     Pb  Cl       
           Cs            Cs Cl             
                                           
                Cl            Cl           
                                           
       Cs             Cs                   
                                           
                                           
                                           
                                           

Atomic positions and initial magnetic moments

Positions:
   0 Cs    -0.126302   -0.026695   -0.094088    ( 0.0000,  0.0000,  0.0000)
   1 Pb     2.851221    2.893757    2.990396    ( 0.0000,  0.0000,  0.0000)
   2 Cl    -0.014535    2.814555    2.844647    ( 0.0000,  0.0000,  0.0000)
   3 Cl     2.851221    2.186049    0.270627    ( 0.0000,  0.0000,  0.0000)
   4 Cs    -0.106195   -0.002856    5.805185    ( 0.0000,  0.0000,  0.0000)
   5 Pb     2.851221    2.830932    8.558417    ( 0.0000,  0.0000,  0.0000)
   6 Cl     2.851221    2.806232    5.840046    ( 0.0000,  0.0000,  0.0000)
   7 Cl    -0.000049    2.838033    8.569126    ( 0.0000,  0.0000,  0.0000)
   8 Cl     2.851221    0.004168    8.559050    ( 0.0000,  0.0000,  0.0000)
   9 Cs    -0.089245    5.735199   -0.044260    ( 0.0000,  0.0000,  0.0000)
  10 Pb     2.851221    8.573251    2.849265    ( 0.0000,  0.0000,  0.0000)
  11 Cl     2.851221    8.586787   -0.008033    ( 0.0000,  0.0000,  0.0000)
  12 Cl    -0.008741    8.587417    2.839906    ( 0.0000,  0.0000,  0.0000)
  13 Cl     2.851221    5.707765    2.827483    ( 0.0000,  0.0000,  0.0000)
  14 Cs    -0.055246    5.704699    5.750293    ( 0.0000,  0.0000,  0.0000)
  15 Pb     2.851221    8.562532    8.558453    ( 0.0000,  0.0000,  0.0000)
  16 Cl     2.851221    8.584649    5.711834    ( 0.0000,  0.0000,  0.0000)
  17 Cl    -0.007756    8.566479    8.564164    ( 0.0000,  0.0000,  0.0000)
  18 Cl     2.851221    5.692528    8.580409    ( 0.0000,  0.0000,  0.0000)
  19 Cs     5.828744   -0.026695   -0.094088    ( 0.0000,  0.0000,  0.0000)
  20 Pb     8.553664    2.846461    2.847817    ( 0.0000,  0.0000,  0.0000)
  21 Cl     8.553664    2.837647   -0.009644    ( 0.0000,  0.0000,  0.0000)
  22 Cl     5.716977    2.814555    2.844647    ( 0.0000,  0.0000,  0.0000)
  23 Cl     8.553664   -0.002283    2.840887    ( 0.0000,  0.0000,  0.0000)
  24 Cs     5.808638   -0.002856    5.805185    ( 0.0000,  0.0000,  0.0000)
  25 Pb     8.553664    2.854516    8.557671    ( 0.0000,  0.0000,  0.0000)
  26 Cl     8.553664    2.835160    5.712595    ( 0.0000,  0.0000,  0.0000)
  27 Cl     5.702492    2.838033    8.569126    ( 0.0000,  0.0000,  0.0000)
  28 Cl     8.553664   -0.000337    8.560899    ( 0.0000,  0.0000,  0.0000)
  29 Cs     5.791688    5.735199   -0.044260    ( 0.0000,  0.0000,  0.0000)
  30 Pb     8.553664    8.557458    2.852200    ( 0.0000,  0.0000,  0.0000)
  31 Cl     8.553664    8.563632   -0.007789    ( 0.0000,  0.0000,  0.0000)
  32 Cl     5.711184    8.587417    2.839906    ( 0.0000,  0.0000,  0.0000)
  33 Cl     8.553664    5.703310    2.838477    ( 0.0000,  0.0000,  0.0000)
  34 Cs     5.757689    5.704699    5.750293    ( 0.0000,  0.0000,  0.0000)
  35 Pb     8.553664    8.549925    8.552503    ( 0.0000,  0.0000,  0.0000)
  36 Cl     8.553664    8.568137    5.710520    ( 0.0000,  0.0000,  0.0000)
  37 Cl     5.710199    8.566479    8.564164    ( 0.0000,  0.0000,  0.0000)
  38 Cl     8.553664    5.702162    8.565047    ( 0.0000,  0.0000,  0.0000)

Unit cell:
           periodic     x           y           z      points  spacing
  1. axis:    yes   11.404885    0.000000    0.000000    70     0.1629
  2. axis:    yes    0.000000   11.404885    0.000000    70     0.1629
  3. axis:    yes    0.000000    0.000000   11.404885    70     0.1629

  Lengths:  11.404885  11.404885  11.404885
  Angles:   90.000000  90.000000  90.000000

Effective grid spacing dv^(1/3) = 0.1629

     iter     time        total  log10-change:
                         energy   eigst   dens
iter:   1 08:21:26  -136.546313   -3.00
iter:   2 08:22:05  -136.544024   -4.17  -2.99
iter:   3 08:22:43  -136.534858c  -3.78  -3.03
iter:   4 08:23:22  -136.535556c  -5.17  -3.41
iter:   5 08:24:00  -136.535891c  -5.75  -3.51
iter:   6 08:24:39  -136.535319c  -5.31  -3.59
iter:   7 08:25:17  -136.535184c  -6.27  -3.95
iter:   8 08:25:56  -136.535129c  -6.44  -4.15c
iter:   9 08:26:34  -136.535196c  -7.22  -4.28c
iter:  10 08:27:13  -136.535189c  -6.67  -4.43c
iter:  11 08:27:52  -136.535177c  -8.20c -4.71c

Converged after 11 iterations.

Dipole moment: (53.587561, 8.185659, 19.486429) |e|*Ang

Energy contributions relative to reference atoms: (reference = -6521360.154902)

Kinetic:       +203.574749
Potential:     -211.807748
External:        +0.000000
XC:            -128.258073
Entropy (-ST):   -0.148352
Local:           +0.030070
SIC:             +0.000000
--------------------------
Free energy:   -136.609353
Extrapolated:  -136.535177

Showing only first 2 kpts
 Kpt  Band  Eigenvalues  Occupancy
  0   170      1.12149    2.00000
  0   171      1.46638    2.00000
  0   172      4.39049    0.96899
  0   173      4.95179    0.00684

 
Forces in eV/Ang:
  0 Cs    0.07549    0.03717    0.02681
  1 Pb    0.00000   -0.38143   -0.37018
  2 Cl    0.02145    0.05230    0.00587
  3 Cl    0.00000   -0.28551    0.06956
  4 Cs    0.03848    0.06179    0.009
Forces in eV/Ang:
  0 Cs    0.07608    0.02499    0.03802
  1 Pb    0.00000   -0.36927   -0.38032
  2 Cl    0.02172    0.00607    0.05663
  3 Cl    0.00000    0.07161   -0.28540
  4 Cs    0.01422   -0.01126   -0.01842
  5 Pb    0.00000   -0.06733    0.49698
  6 Cl    0.00000   -0.00755    0.07473
  7 Cl   -0.03964    0.01301   -0.00882
  8 Cl    0.00000   -0.05738   -0.10095
  9 Cs    0.04008    0.01180    0.06290
 10 Pb    0.00000    0.28418   -0.00634
 11 Cl    0.00000   -0.01145   -0.00469
 12 Cl   -0.01466    0.00838    0.00723
 13 Cl    0.00000    0.01390   -0.00850
 14 Cs    0.03887    0.01649   -0.04748
 15 Pb    0.00000    0.00147    0.00813
 16 Cl    0.00000   -0.00416    0.01080
 17 Cl   -0.01475   -0.00841   -0.01026
 18 Cl    0.00000    0.01589    0.03381
 19 Cs   -0.07608    0.02499    0.03802
 20 Pb    0.00000   -0.00255    0.00088
 21 Cl    0.00000    0.01080   -0.00418
 22 Cl   -0.02172    0.00607    0.05663
 23 Cl    0.00000    0.00107    0.01254
 24 Cs   -0.01422   -0.01126   -0.01842
 25 Pb    0.00000    0.00088    0.00459
 26 Cl    0.00000    0.00120    0.00318
 27 Cl    0.03964    0.01301   -0.00882
 28 Cl    0.00000   -0.00254   -0.01755
 29 Cs   -0.04008    0.01180    0.06290
 30 Pb    0.00000    0.00927   -0.00352
 31 Cl    0.00000   -0.02055   -0.00746
 32 Cl    0.01466    0.00838    0.00723
 33 Cl   -0.00000    0.00044    0.00161
 34 Cs   -0.03887    0.01649   -0.04748
 35 Pb    0.00000    0.00107    0.00500
 36 Cl    0.00000   -0.00372    0.00711
 37 Cl    0.01475   -0.00841   -0.01026
 38 Cl    0.00000    0.00447   -0.00472

System changes: positions 

Initializing position-dependent things.

Density initialized from wave functions
                                           
                                           
                                           
                                           
             Cl     Pb     Cl     Pb       
                                           
                  Cl            Cl         
         Cl     Pb  Cl Cl     Pb  Cl       
                                           
           Cs Cl         Cs Cl             
                                           
             Cl Cl  Pb     Cl Cl  Pb       
                                           
       Cs         Cl  Cs        Cl         
                Pb                         
         Cl         Cl Cl     Pb  Cl       
           Cs            Cs Cl             
                                           
                Cl            Cl           
                                           
       Cs             Cs                   
                                           
                                           
                                           
                                           

Atomic positions and initial magnetic moments

Positions:
   0 Cs    -0.121429   -0.026365   -0.090005    ( 0.0000,  0.0000,  0.0000)
   1 Pb     2.851221    2.875852    2.996649    ( 0.0000,  0.0000,  0.0000)
   2 Cl    -0.022962    2.815264    2.847989    ( 0.0000,  0.0000,  0.0000)
   3 Cl     2.851221    2.156085    0.226502    ( 0.0000,  0.0000,  0.0000)
   4 Cs    -0.104415   -0.003960    5.802315    ( 0.0000,  0.0000,  0.0000)
   5 Pb     2.851221    2.825687    8.578073    ( 0.0000,  0.0000,  0.0000)
   6 Cl     2.851221    2.804038    5.874461    ( 0.0000,  0.0000,  0.0000)
   7 Cl    -0.002560    2.839121    8.569044    ( 0.0000,  0.0000,  0.0000)
   8 Cl     2.851221    0.001911    8.553600    ( 0.0000,  0.0000,  0.0000)
   9 Cs    -0.087261    5.737189   -0.039011    ( 0.0000,  0.0000,  0.0000)
  10 Pb     2.851221    8.599770    2.848998    ( 0.0000,  0.0000,  0.0000)
  11 Cl     2.851221    8.585339   -0.015237    ( 0.0000,  0.0000,  0.0000)
  12 Cl    -0.016394    8.587687    2.840233    ( 0.0000,  0.0000,  0.0000)
  13 Cl     2.851221    5.710371    2.824704    ( 0.0000,  0.0000,  0.0000)
  14 Cs    -0.052293    5.706027    5.745858    ( 0.0000,  0.0000,  0.0000)
  15 Pb     2.851221    8.563744    8.559037    ( 0.0000,  0.0000,  0.0000)
  16 Cl     2.851221    8.584101    5.719610    ( 0.0000,  0.0000,  0.0000)
  17 Cl    -0.009605    8.565687    8.563619    ( 0.0000,  0.0000,  0.0000)
  18 Cl     2.851221    5.692655    8.582946    ( 0.0000,  0.0000,  0.0000)
  19 Cs     5.823871   -0.026365   -0.090005    ( 0.0000,  0.0000,  0.0000)
  20 Pb     8.553664    2.846417    2.847597    ( 0.0000,  0.0000,  0.0000)
  21 Cl     8.553664    2.838480   -0.011636    ( 0.0000,  0.0000,  0.0000)
  22 Cl     5.725405    2.815264    2.847989    ( 0.0000,  0.0000,  0.0000)
  23 Cl     8.553664   -0.002480    2.841564    ( 0.0000,  0.0000,  0.0000)
  24 Cs     5.806857   -0.003960    5.802315    ( 0.0000,  0.0000,  0.0000)
  25 Pb     8.553664    2.854054    8.558060    ( 0.0000,  0.0000,  0.0000)
  26 Cl     8.553664    2.835348    5.714501    ( 0.0000,  0.0000,  0.0000)
  27 Cl     5.705003    2.839121    8.569044    ( 0.0000,  0.0000,  0.0000)
  28 Cl     8.553664   -0.000349    8.559860    ( 0.0000,  0.0000,  0.0000)
  29 Cs     5.789703    5.737189   -0.039011    ( 0.0000,  0.0000,  0.0000)
  30 Pb     8.553664    8.557886    2.851870    ( 0.0000,  0.0000,  0.0000)
  31 Cl     8.553664    8.562068   -0.009527    ( 0.0000,  0.0000,  0.0000)
  32 Cl     5.718837    8.587687    2.840233    ( 0.0000,  0.0000,  0.0000)
  33 Cl     8.553664    5.703652    2.838398    ( 0.0000,  0.0000,  0.0000)
  34 Cs     5.754736    5.706027    5.745858    ( 0.0000,  0.0000,  0.0000)
  35 Pb     8.553664    8.550584    8.552881    ( 0.0000,  0.0000,  0.0000)
  36 Cl     8.553664    8.567699    5.712232    ( 0.0000,  0.0000,  0.0000)
  37 Cl     5.712048    8.565687    8.563619    ( 0.0000,  0.0000,  0.0000)
  38 Cl     8.553664    5.702356    8.564896    ( 0.0000,  0.0000,  0.0000)

Unit cell:
           periodic     x           y           z      points  spacing
  1. axis:    yes   11.404885    0.000000    0.000000    70     0.1629
  2. axis:    yes    0.000000   11.404885    0.000000    70     0.1629
  3. axis:    yes    0.000000    0.000000   11.404885    70     0.1629

  Lengths:  11.404885  11.404885  11.404885
  Angles:   90.000000  90.000000  90.000000

Effective grid spacing dv^(1/3) = 0.1629

     iter     time        total  log10-change:
                         energy   eigst   dens
iter:   1 08:57:05  -136.568356   -3.08
iter:   2 08:57:48  -136.567560   -4.24  -3.10
iter:   3 08:58:31  -136.563397c  -4.20  -3.13
iter:   4 08:59:09  -136.563548c  -5.55  -3.60
iter:   5 08:59:48  -136.563785c  -5.87  -3.63
iter:   6 09:00:25  -136.563516c  -5.44  -3.72
iter:   7 09:01:04  -136.563493c  -6.66  -4.06c
iter:   8 09:01:43  -136.563506c  -7.01  -4.18c
iter:   9 09:02:21  -136.563512c  -7.54c -4.35c

Converged after 9 iterations.

Dipole moment: (54.838459, 8.739218, 19.117998) |e|*Ang

Energy contributions relative to reference atoms: (reference = -6521360.154902)

Kinetic:       +202.445278
Potential:     -210.884989
External:        +0.000000
XC:            -128.082069
Entropy (-ST):   -0.144093
Local:           +0.030314
SIC:             +0.000000
--------------------------
Free energy:   -136.635558
Extrapolated:  -136.563512

Showing only first 2 kpts
 Kpt  Band  Eigenvalues  Occupancy
  0   170      1.11535    2.00000
  0   171      1.46034    2.00000
  0   172      4.32591    0.97371
  0   173      4.95347    0.00356

  
Forces in eV/Ang:
  0 Cs    0.06865    0.02917    0.02377
  1 Pb   -0.00000   -0.43097   -0.32708
  2 Cl    0.11966    0.05035   -0.00156
  3 Cl    0.00000    0.01058    0.14856
  4 Cs    0.03813    0.05780    0.01
Forces in eV/Ang:
  0 Cs    0.06902    0.02201    0.02977
  1 Pb   -0.00000   -0.33159   -0.42944
  2 Cl    0.11852   -0.00114    0.05368
  3 Cl    0.00000    0.15260    0.01134
  4 Cs    0.01257   -0.00873   -0.01040
  5 Pb    0.00000   -0.04422    0.55169
  6 Cl    0.00000    0.00086   -0.22406
  7 Cl   -0.02529    0.00635   -0.00403
  8 Cl    0.00000   -0.06236   -0.10113
  9 Cs    0.03949    0.01278    0.05854
 10 Pb   -0.00000    0.20075   -0.00082
 11 Cl    0.00000    0.00421    0.07349
 12 Cl    0.06106    0.01714    0.00662
 13 Cl    0.00000   -0.00396    0.00871
 14 Cs    0.04161    0.01411   -0.04327
 15 Pb    0.00000   -0.01486    0.00358
 16 Cl    0.00000    0.00561   -0.06992
 17 Cl    0.00122   -0.00350   -0.00885
 18 Cl    0.00000    0.01734    0.03653
 19 Cs   -0.06902    0.02201    0.02977
 20 Pb    0.00000   -0.00214    0.00788
 21 Cl    0.00000    0.00881    0.02129
 22 Cl   -0.11852   -0.00114    0.05368
 23 Cl    0.00000    0.00430    0.01172
 24 Cs   -0.01257   -0.00873   -0.01040
 25 Pb    0.00000    0.00537   -0.00063
 26 Cl    0.00000   -0.00000   -0.02136
 27 Cl    0.02529    0.00635   -0.00403
 28 Cl    0.00000   -0.00380   -0.01598
 29 Cs   -0.03949    0.01278    0.05854
 30 Pb    0.00000    0.00916   -0.00237
 31 Cl    0.00000   -0.01772    0.01212
 32 Cl   -0.06106    0.01714    0.00662
 33 Cl    0.00000   -0.00261    0.00136
 34 Cs   -0.04161    0.01411   -0.04327
 35 Pb    0.00000   -0.00425    0.00420
 36 Cl    0.00000   -0.00150   -0.01244
 37 Cl   -0.00122   -0.00350   -0.00885
 38 Cl    0.00000    0.00570   -0.00409

System changes: positions 

Initializing position-dependent things.

Density initialized from wave functions
                                           
                                           
                                           
                                           
             Cl     Pb     Cl     Pb       
                                           
                  Cl            Cl         
         Cl     Pb  Cl Cl     Pb  Cl       
                                           
           Cs Cl         Cs Cl             
                                           
             Cl Cl  Pb     Cl Cl  Pb       
                                           
       Cs         Cl  Cs        Cl         
                                           
         Cl     Pb  Cl Cl     Pb  Cl       
                                           
           Cs            Cs Cl             
                Cl            Cl           
                                           
       Cs             Cs                   
                                           
                                           
                                           
                                           

Atomic positions and initial magnetic moments

Positions:
   0 Cs    -0.115597   -0.025683   -0.085687    ( 0.0000,  0.0000,  0.0000)
   1 Pb     2.851221    2.852683    2.989940    ( 0.0000,  0.0000,  0.0000)
   2 Cl    -0.026895    2.815950    2.852165    ( 0.0000,  0.0000,  0.0000)
   3 Cl     2.851221    2.130911    0.193990    ( 0.0000,  0.0000,  0.0000)
   4 Cs    -0.102591   -0.005218    5.799514    ( 0.0000,  0.0000,  0.0000)
   5 Pb     2.851221    2.820155    8.608669    ( 0.0000,  0.0000,  0.0000)
   6 Cl     2.851221    2.802158    5.897766    ( 0.0000,  0.0000,  0.0000)
   7 Cl    -0.005293    2.840224    8.568894    ( 0.0000,  0.0000,  0.0000)
   8 Cl     2.851221   -0.001557    8.546452    ( 0.0000,  0.0000,  0.0000)
   9 Cs    -0.084696    5.739339   -0.033074    ( 0.0000,  0.0000,  0.0000)
  10 Pb     2.851221    8.627163    2.848714    ( 0.0000,  0.0000,  0.0000)
  11 Cl     2.851221    8.584109   -0.019353    ( 0.0000,  0.0000,  0.0000)
  12 Cl    -0.021211    8.588282    2.840679    ( 0.0000,  0.0000,  0.0000)
  13 Cl     2.851221    5.712785    2.822462    ( 0.0000,  0.0000,  0.0000)
  14 Cs    -0.048837    5.707618    5.740994    ( 0.0000,  0.0000,  0.0000)
  15 Pb     2.851221    8.564429    8.559670    ( 0.0000,  0.0000,  0.0000)
  16 Cl     2.851221    8.583719    5.724305    ( 0.0000,  0.0000,  0.0000)
  17 Cl    -0.011118    8.564904    8.562936    ( 0.0000,  0.0000,  0.0000)
  18 Cl     2.851221    5.693206    8.586001    ( 0.0000,  0.0000,  0.0000)
  19 Cs     5.818040   -0.025683   -0.085687    ( 0.0000,  0.0000,  0.0000)
  20 Pb     8.553664    2.846324    2.847590    ( 0.0000,  0.0000,  0.0000)
  21 Cl     8.553664    2.839438   -0.012757    ( 0.0000,  0.0000,  0.0000)
  22 Cl     5.729338    2.815950    2.852165    ( 0.0000,  0.0000,  0.0000)
  23 Cl     8.553664   -0.002546    2.842435    ( 0.0000,  0.0000,  0.0000)
  24 Cs     5.805034   -0.005218    5.799514    ( 0.0000,  0.0000,  0.0000)
  25 Pb     8.553664    2.853782    8.558397    ( 0.0000,  0.0000,  0.0000)
  26 Cl     8.553664    2.835526    5.715549    ( 0.0000,  0.0000,  0.0000)
  27 Cl     5.707736    2.840224    8.568894    ( 0.0000,  0.0000,  0.0000)
  28 Cl     8.553664   -0.000460    8.558572    ( 0.0000,  0.0000,  0.0000)
  29 Cs     5.787138    5.739339   -0.033074    ( 0.0000,  0.0000,  0.0000)
  30 Pb     8.553664    8.558488    2.851520    ( 0.0000,  0.0000,  0.0000)
  31 Cl     8.553664    8.560265   -0.010662    ( 0.0000,  0.0000,  0.0000)
  32 Cl     5.723654    8.588282    2.840679    ( 0.0000,  0.0000,  0.0000)
  33 Cl     8.553664    5.703885    2.838357    ( 0.0000,  0.0000,  0.0000)
  34 Cs     5.751280    5.707618    5.740994    ( 0.0000,  0.0000,  0.0000)
  35 Pb     8.553664    8.551049    8.553320    ( 0.0000,  0.0000,  0.0000)
  36 Cl     8.553664    8.567269    5.713338    ( 0.0000,  0.0000,  0.0000)
  37 Cl     5.713560    8.564904    8.562936    ( 0.0000,  0.0000,  0.0000)
  38 Cl     8.553664    5.702672    8.564673    ( 0.0000,  0.0000,  0.0000)

Unit cell:
           periodic     x           y           z      points  spacing
  1. axis:    yes   11.404885    0.000000    0.000000    70     0.1629
  2. axis:    yes    0.000000   11.404885    0.000000    70     0.1629
  3. axis:    yes    0.000000    0.000000   11.404885    70     0.1629

  Lengths:  11.404885  11.404885  11.404885
  Angles:   90.000000  90.000000  90.000000

Effective grid spacing dv^(1/3) = 0.1629

     iter     time        total  log10-change:
                         energy   eigst   dens
iter:   1 09:31:51  -136.589995   -3.11
iter:   2 09:32:30  -136.589957   -4.29  -3.18
iter:   3 09:33:08  -136.588529c  -4.90  -3.20
iter:   4 09:33:47  -136.588169c  -4.97  -3.44
iter:   5 09:34:26  -136.588242c  -5.89  -3.66
iter:   6 09:35:05  -136.588246c  -5.96  -3.93
iter:   7 09:35:44  -136.588229c  -6.78  -4.05c
iter:   8 09:36:23  -136.588258c  -6.53  -4.17c
iter:   9 09:37:02  -136.588231c  -7.27  -4.44c
iter:  10 09:37:41  -136.588232c  -7.46c -4.52c

Converged after 10 iterations.

Dipole moment: (54.848942, 9.381610, 18.429332) |e|*Ang

Energy contributions relative to reference atoms: (reference = -6521360.154902)

Kinetic:       +201.453063
Potential:     -210.088220
External:        +0.000000
XC:            -127.910063
Entropy (-ST):   -0.141827
Local:           +0.027902
SIC:             +0.000000
--------------------------
Free energy:   -136.659146
Extrapolated:  -136.588232

Showing only first 2 kpts
 Kpt  Band  Eigenvalues  Occupancy
  0   170      1.11198    2.00000
  0   171      1.45582    2.00000
  0   172      4.26569    0.97498
  0   173      4.95294    0.00197

  1
Forces in eV/Ang:
  0 Cs    0.05523    0.02039    0.01815
  1 Pb   -0.00000   -0.33319   -0.24690
  2 Cl    0.14556    0.04167   -0.00345
  3 Cl    0.00000    0.04058    0.12880
  4 Cs    0.03708    0.05417    0.0
Forces in eV/Ang:
  0 Cs    0.05553    0.01654    0.02085
  1 Pb   -0.00000   -0.25403   -0.33311
  2 Cl    0.14333   -0.00311    0.04524
  3 Cl    0.00000    0.13292    0.04303
  4 Cs    0.01108   -0.00493   -0.00116
  5 Pb   -0.00000   -0.02993    0.46190
  6 Cl    0.00000    0.00214   -0.29055
  7 Cl   -0.01424    0.00701    0.00529
  8 Cl    0.00000   -0.05839   -0.10444
  9 Cs    0.03812    0.01712    0.05440
 10 Pb   -0.00000    0.11514    0.00173
 11 Cl    0.00000    0.00502    0.10408
 12 Cl    0.09021    0.01827    0.00509
 13 Cl    0.00000   -0.01083    0.00028
 14 Cs    0.04648    0.01060   -0.03782
 15 Pb   -0.00000   -0.03117    0.00022
 16 Cl    0.00000    0.00453   -0.10037
 17 Cl    0.00765   -0.00376   -0.00725
 18 Cl    0.00000    0.01282    0.04834
 19 Cs   -0.05553    0.01654    0.02085
 20 Pb    0.00000   -0.00083    0.00905
 21 Cl    0.00000    0.00833    0.03133
 22 Cl   -0.14333   -0.00311    0.04524
 23 Cl    0.00000    0.00566    0.00985
 24 Cs   -0.01108   -0.00493   -0.00116
 25 Pb    0.00000    0.01123   -0.00135
 26 Cl    0.00000   -0.00004   -0.03003
 27 Cl    0.01424    0.00701    0.00529
 28 Cl    0.00000   -0.00400   -0.01341
 29 Cs   -0.03812    0.01712    0.05440
 30 Pb    0.00000    0.00778   -0.00017
 31 Cl    0.00000   -0.01694    0.01969
 32 Cl   -0.09021    0.01827    0.00509
 33 Cl    0.00000   -0.00389   -0.00006
 34 Cs   -0.04648    0.01060   -0.03782
 35 Pb    0.00000   -0.00984    0.00223
 36 Cl    0.00000   -0.00136   -0.01982
 37 Cl   -0.00765   -0.00376   -0.00725
 38 Cl    0.00000    0.00561   -0.00254

System changes: positions 

Initializing position-dependent things.

Density initialized from wave functions
                                           
                                           
                                           
                                           
             Cl     Pb     Cl     Pb       
                                           
                  Cl            Cl         
                Pb                         
         Cl         Cl Cl     Pb  Cl       
           Cs Cl         Cs Cl             
                                           
             Cl Cl  Pb     Cl Cl  Pb       
                                           
       Cs         Cl  Cs        Cl         
                                           
         Cl     Pb  Cl Cl     Pb  Cl       
                                           
           Cs            Cs Cl             
                              Cl           
                Cl                         
       Cs             Cs                   
                                           
                                           
                                           
                                           

Atomic positions and initial magnetic moments

Positions:
   0 Cs    -0.104596   -0.024155   -0.078147    ( 0.0000,  0.0000,  0.0000)
   1 Pb     2.851221    2.807568    2.965060    ( 0.0000,  0.0000,  0.0000)
   2 Cl    -0.027986    2.817121    2.860270    ( 0.0000,  0.0000,  0.0000)
   3 Cl     2.851221    2.092935    0.149486    ( 0.0000,  0.0000,  0.0000)
   4 Cs    -0.099411   -0.007473    5.795038    ( 0.0000,  0.0000,  0.0000)
   5 Pb     2.851221    2.810377    8.672430    ( 0.0000,  0.0000,  0.0000)
   6 Cl     2.851221    2.799279    5.924641    ( 0.0000,  0.0000,  0.0000)
   7 Cl    -0.010119    2.842289    8.568836    ( 0.0000,  0.0000,  0.0000)
   8 Cl     2.851221   -0.009014    8.531550    ( 0.0000,  0.0000,  0.0000)
   9 Cs    -0.079464    5.743413   -0.021939    ( 0.0000,  0.0000,  0.0000)
  10 Pb     2.851221    8.673683    2.848219    ( 0.0000,  0.0000,  0.0000)
  11 Cl     2.851221    8.582086   -0.022192    ( 0.0000,  0.0000,  0.0000)
  12 Cl    -0.025633    8.589684    2.841567    ( 0.0000,  0.0000,  0.0000)
  13 Cl     2.851221    5.716621    2.818737    ( 0.0000,  0.0000,  0.0000)
  14 Cs    -0.041978    5.710610    5.732139    ( 0.0000,  0.0000,  0.0000)
  15 Pb     2.851221    8.564464    8.560759    ( 0.0000,  0.0000,  0.0000)
  16 Cl     2.851221    8.583100    5.728198    ( 0.0000,  0.0000,  0.0000)
  17 Cl    -0.013265    8.563474    8.561600    ( 0.0000,  0.0000,  0.0000)
  18 Cl     2.851221    5.694539    8.592458    ( 0.0000,  0.0000,  0.0000)
  19 Cs     5.807039   -0.024155   -0.078147    ( 0.0000,  0.0000,  0.0000)
  20 Pb     8.553664    2.846144    2.847818    ( 0.0000,  0.0000,  0.0000)
  21 Cl     8.553664    2.841279   -0.013488    ( 0.0000,  0.0000,  0.0000)
  22 Cl     5.730429    2.817121    2.860270    ( 0.0000,  0.0000,  0.0000)
  23 Cl     8.553664   -0.002468    2.844154    ( 0.0000,  0.0000,  0.0000)
  24 Cs     5.801854   -0.007473    5.795038    ( 0.0000,  0.0000,  0.0000)
  25 Pb     8.553664    2.853753    8.558959    ( 0.0000,  0.0000,  0.0000)
  26 Cl     8.553664    2.835834    5.716208    ( 0.0000,  0.0000,  0.0000)
  27 Cl     5.712562    2.842289    8.568836    ( 0.0000,  0.0000,  0.0000)
  28 Cl     8.553664   -0.000775    8.556071    ( 0.0000,  0.0000,  0.0000)
  29 Cs     5.781907    5.743413   -0.021939    ( 0.0000,  0.0000,  0.0000)
  30 Pb     8.553664    8.559719    2.850963    ( 0.0000,  0.0000,  0.0000)
  31 Cl     8.553664    8.556800   -0.011797    ( 0.0000,  0.0000,  0.0000)
  32 Cl     5.728076    8.589684    2.841567    ( 0.0000,  0.0000,  0.0000)
  33 Cl     8.553664    5.704129    2.838289    ( 0.0000,  0.0000,  0.0000)
  34 Cs     5.744420    5.710610    5.732139    ( 0.0000,  0.0000,  0.0000)
  35 Pb     8.553664    8.551439    8.554093    ( 0.0000,  0.0000,  0.0000)
  36 Cl     8.553664    8.566511    5.714426    ( 0.0000,  0.0000,  0.0000)
  37 Cl     5.715708    8.563474    8.561600    ( 0.0000,  0.0000,  0.0000)
  38 Cl     8.553664    5.703362    8.564235    ( 0.0000,  0.0000,  0.0000)

Unit cell:
           periodic     x           y           z      points  spacing
  1. axis:    yes   11.404885    0.000000    0.000000    70     0.1629
  2. axis:    yes    0.000000   11.404885    0.000000    70     0.1629
  3. axis:    yes    0.000000    0.000000   11.404885    70     0.1629

  Lengths:  11.404885  11.404885  11.404885
  Angles:   90.000000  90.000000  90.000000

Effective grid spacing dv^(1/3) = 0.1629

     iter     time        total  log10-change:
                         energy   eigst   dens
iter:   1 10:11:04  -136.613815   -2.62
iter:   2 10:11:43  -136.614559   -3.79  -3.00
iter:   3 10:12:22  -136.612786c  -4.62  -3.01
iter:   4 10:13:02  -136.612098c  -4.62  -3.16
iter:   5 10:13:41  -136.612138c  -5.41  -3.39
iter:   6 10:14:20  -136.612218c  -5.61  -3.69
iter:   7 10:14:59  -136.612177c  -6.29  -3.81
iter:   8 10:15:38  -136.612198c  -6.01  -3.97
iter:   9 10:16:17  -136.612165c  -6.46  -4.11c
iter:  10 10:16:55  -136.612161c  -7.11  -4.25c
iter:  11 10:17:34  -136.612165c  -7.25  -4.60c
iter:  12 10:18:13  -136.612162c  -8.34c -4.68c

Converged after 12 iterations.

Dipole moment: (53.210655, 10.586586, 16.776405) |e|*Ang

Energy contributions relative to reference atoms: (reference = -6521360.154902)

Kinetic:       +199.720526
Potential:     -208.679214
External:        +0.000000
XC:            -127.611163
Entropy (-ST):   -0.139998
Local:           +0.027688
SIC:             +0.000000
--------------------------
Free energy:   -136.682161
Extrapolated:  -136.612162

Showing only first 2 kpts
 Kpt  Band  Eigenvalues  Occupancy
  0   170      1.10519    2.00000
  0   171      1.44947    2.00000
  0   172      4.16892    0.97498
  0   173      4.94865    0.00078

  1
Forces in eV/Ang:
  0 Cs    0.02242    0.00539    0.00178
  1 Pb   -0.00000   -0.13652   -0.10034
  2 Cl    0.17638    0.02707   -0.01122
  3 Cl    0.00000    0.16734    0.11798
  4 Cs    0.03177    0.04940    0.0
Forces in eV/Ang:
  0 Cs    0.02243    0.00069    0.00546
  1 Pb   -0.00000   -0.11013   -0.14004
  2 Cl    0.17284   -0.01069    0.03028
  3 Cl    0.00000    0.12139    0.16933
  4 Cs    0.01287    0.00703    0.01434
  5 Pb   -0.00000    0.00674    0.17802
  6 Cl    0.00000   -0.00055   -0.36257
  7 Cl    0.02034    0.00358    0.02300
  8 Cl    0.00000   -0.03343   -0.10300
  9 Cs    0.03252    0.02581    0.04887
 10 Pb   -0.00000   -0.02287    0.01479
 11 Cl    0.00000    0.01606    0.14691
 12 Cl    0.13290    0.02626    0.00235
 13 Cl    0.00000   -0.03221   -0.01077
 14 Cs    0.06029   -0.00227   -0.03112
 15 Pb   -0.00000   -0.05911   -0.01153
 16 Cl    0.00000    0.00971   -0.14547
 17 Cl    0.02301   -0.00107   -0.00372
 18 Cl    0.00000   -0.00637    0.06747
 19 Cs   -0.02243    0.00069    0.00546
 20 Pb   -0.00000    0.00217    0.01784
 21 Cl    0.00000    0.00566    0.05088
 22 Cl   -0.17284   -0.01069    0.03028
 23 Cl   -0.00000    0.00915    0.00598
 24 Cs   -0.01287    0.00703    0.01434
 25 Pb    0.00000    0.01902   -0.00845
 26 Cl    0.00000   -0.00141   -0.04668
 27 Cl   -0.02034    0.00358    0.02300
 28 Cl    0.00000   -0.00311   -0.00866
 29 Cs   -0.03252    0.02581    0.04887
 30 Pb    0.00000    0.00403    0.00733
 31 Cl    0.00000   -0.01356    0.03547
 32 Cl   -0.13290    0.02626    0.00235
 33 Cl    0.00000   -0.00633   -0.00264
 34 Cs   -0.06029   -0.00227   -0.03112
 35 Pb   -0.00000   -0.01769   -0.00534
 36 Cl    0.00000    0.00028   -0.03493
 37 Cl   -0.02301   -0.00107   -0.00372
 38 Cl    0.00000    0.00471    0.00011

System changes: positions 

Initializing position-dependent things.

Density initialized from wave functions
                                           
                                           
                                           
                                           
             Cl     Pb     Cl     Pb       
                                           
                  Cl            Cl         
                Pb                         
         Cl         Cl Cl     Pb  Cl       
           Cs Cl         Cs Cl             
                                           
             Cl Cl  Pb     Cl Cl  Pb       
                                           
       Cs         Cl  Cs        Cl         
                                           
         Cl     Pb  Cl Cl     Pb  Cl       
                                           
           Cs            Cs Cl             
                              Cl           
                Cl                         
       Cs             Cs                   
                                           
                                           
                                           
                                           

Atomic positions and initial magnetic moments

Positions:
   0 Cs    -0.101465   -0.023609   -0.076493    ( 0.0000,  0.0000,  0.0000)
   1 Pb     2.851221    2.792943    2.945942    ( 0.0000,  0.0000,  0.0000)
   2 Cl    -0.021632    2.817253    2.862961    ( 0.0000,  0.0000,  0.0000)
   3 Cl     2.851221    2.091058    0.155308    ( 0.0000,  0.0000,  0.0000)
   4 Cs    -0.098615   -0.007921    5.794550    ( 0.0000,  0.0000,  0.0000)
   5 Pb     2.851221    2.808392    8.695568    ( 0.0000,  0.0000,  0.0000)
   6 Cl     2.851221    2.799001    5.915015    ( 0.0000,  0.0000,  0.0000)
   7 Cl    -0.010871    2.842823    8.569169    ( 0.0000,  0.0000,  0.0000)
   8 Cl     2.851221   -0.011929    8.525526    ( 0.0000,  0.0000,  0.0000)
   9 Cs    -0.077500    5.744780   -0.018528    ( 0.0000,  0.0000,  0.0000)
  10 Pb     2.851221    8.682224    2.848309    ( 0.0000,  0.0000,  0.0000)
  11 Cl     2.851221    8.581978   -0.017760    ( 0.0000,  0.0000,  0.0000)
  12 Cl    -0.021938    8.590554    2.841877    ( 0.0000,  0.0000,  0.0000)
  13 Cl     2.851221    5.716817    2.818121    ( 0.0000,  0.0000,  0.0000)
  14 Cs    -0.039330    5.711380    5.729694    ( 0.0000,  0.0000,  0.0000)
  15 Pb     2.851221    8.563010    8.560838    ( 0.0000,  0.0000,  0.0000)
  16 Cl     2.851221    8.583154    5.724004    ( 0.0000,  0.0000,  0.0000)
  17 Cl    -0.013039    8.563142    8.561164    ( 0.0000,  0.0000,  0.0000)
  18 Cl     2.851221    5.695009    8.595275    ( 0.0000,  0.0000,  0.0000)
  19 Cs     5.803908   -0.023609   -0.076493    ( 0.0000,  0.0000,  0.0000)
  20 Pb     8.553664    2.846107    2.848295    ( 0.0000,  0.0000,  0.0000)
  21 Cl     8.553664    2.841848   -0.012104    ( 0.0000,  0.0000,  0.0000)
  22 Cl     5.724075    2.817253    2.862961    ( 0.0000,  0.0000,  0.0000)
  23 Cl     8.553664   -0.002197    2.844742    ( 0.0000,  0.0000,  0.0000)
  24 Cs     5.801058   -0.007921    5.794550    ( 0.0000,  0.0000,  0.0000)
  25 Pb     8.553664    2.854256    8.558926    ( 0.0000,  0.0000,  0.0000)
  26 Cl     8.553664    2.835876    5.714895    ( 0.0000,  0.0000,  0.0000)
  27 Cl     5.713314    2.842823    8.569169    ( 0.0000,  0.0000,  0.0000)
  28 Cl     8.553664   -0.000966    8.555244    ( 0.0000,  0.0000,  0.0000)
  29 Cs     5.779943    5.744780   -0.018528    ( 0.0000,  0.0000,  0.0000)
  30 Pb     8.553664    8.560164    2.850989    ( 0.0000,  0.0000,  0.0000)
  31 Cl     8.553664    8.555698   -0.010955    ( 0.0000,  0.0000,  0.0000)
[...]
 36 Cl    0.00000    0.00025    0.01384
 37 Cl    0.00331   -0.00207   -0.00128
 38 Cl    0.00000   -0.00155   -0.00230

System changes: positions 

Initializing position-dependent things.

Density initialized from wave functions
                                           
                                           
                                           
                                           
             Cl     Pb     Cl     Pb       
                                           
                  Cl            Cl         
                Pb                         
         Cl         Cl Cl     Pb  Cl       
           Cs            Cs Cl             
              Cl                           
             Cl Cl  Pb     Cl Cl  Pb       
                                           
       Cs         Cl  Cs        Cl         
                                           
         Cl     Pb  Cl Cl     Pb  Cl       
           Cs            Cs                
                            Cl             
                              Cl           
                Cl                         
       Cs             Cs                   
                                           
                                           
                                           
                                           

Atomic positions and initial magnetic moments

Positions:
   0 Cs    -0.088012   -0.028706   -0.066375    ( 0.0000,  0.0000,  0.0000)
   1 Pb     2.851221    2.738542    2.939631    ( 0.0000,  0.0000,  0.0000)
   2 Cl     0.008210    2.811626    2.875216    ( 0.0000,  0.0000,  0.0000)
   3 Cl     2.851221    2.076550    0.160656    ( 0.0000,  0.0000,  0.0000)
   4 Cs    -0.085675   -0.003960    5.796107    ( 0.0000,  0.0000,  0.0000)
   5 Pb     2.851221    2.799082    8.715146    ( 0.0000,  0.0000,  0.0000)
   6 Cl     2.851221    2.795075    5.860177    ( 0.0000,  0.0000,  0.0000)
   7 Cl     0.000492    2.844669    8.587633    ( 0.0000,  0.0000,  0.0000)
   8 Cl     2.851221   -0.019991    8.476399    ( 0.0000,  0.0000,  0.0000)
   9 Cs    -0.058167    5.765244    0.018640    ( 0.0000,  0.0000,  0.0000)
  10 Pb     2.851221    8.697258    2.855928    ( 0.0000,  0.0000,  0.0000)
  11 Cl     2.851221    8.590725    0.011320    ( 0.0000,  0.0000,  0.0000)
  12 Cl     0.004464    8.604433    2.843033    ( 0.0000,  0.0000,  0.0000)
  13 Cl     2.851221    5.707017    2.800185    ( 0.0000,  0.0000,  0.0000)
  14 Cs     0.001411    5.709932    5.702825    ( 0.0000,  0.0000,  0.0000)
  15 Pb     2.851221    8.539567    8.557585    ( 0.0000,  0.0000,  0.0000)
  16 Cl     2.851221    8.584054    5.694962    ( 0.0000,  0.0000,  0.0000)
  17 Cl    -0.005486    8.561503    8.559203    ( 0.0000,  0.0000,  0.0000)
  18 Cl     2.851221    5.682130    8.638454    ( 0.0000,  0.0000,  0.0000)
  19 Cs     5.790455   -0.028706   -0.066375    ( 0.0000,  0.0000,  0.0000)
  20 Pb     8.553664    2.846784    2.856117    ( 0.0000,  0.0000,  0.0000)
  21 Cl     8.553664    2.845243    0.001482    ( 0.0000,  0.0000,  0.0000)
  22 Cl     5.694233    2.811626    2.875216    ( 0.0000,  0.0000,  0.0000)
  23 Cl     8.553664    0.000551    2.848179    ( 0.0000,  0.0000,  0.0000)
  24 Cs     5.788117   -0.003960    5.796107    ( 0.0000,  0.0000,  0.0000)
  25 Pb     8.553664    2.861304    8.557439    ( 0.0000,  0.0000,  0.0000)
  26 Cl     8.553664    2.835516    5.704328    ( 0.0000,  0.0000,  0.0000)
  27 Cl     5.701950    2.844669    8.587633    ( 0.0000,  0.0000,  0.0000)
  28 Cl     8.553664   -0.000986    8.550007    ( 0.0000,  0.0000,  0.0000)
  29 Cs     5.760610    5.765244    0.018640    ( 0.0000,  0.0000,  0.0000)
  30 Pb     8.553664    8.562735    2.855825    ( 0.0000,  0.0000,  0.0000)
  31 Cl     8.553664    8.546909   -0.001290    ( 0.0000,  0.0000,  0.0000)
  32 Cl     5.697978    8.604433    2.843033    ( 0.0000,  0.0000,  0.0000)
  33 Cl     8.553664    5.703765    2.836916    ( 0.0000,  0.0000,  0.0000)
  34 Cs     5.701032    5.709932    5.702825    ( 0.0000,  0.0000,  0.0000)
  35 Pb     8.553664    8.544904    8.550462    ( 0.0000,  0.0000,  0.0000)
  36 Cl     8.553664    8.565721    5.704451    ( 0.0000,  0.0000,  0.0000)
  37 Cl     5.707929    8.561503    8.559203    ( 0.0000,  0.0000,  0.0000)
  38 Cl     8.553664    5.704954    8.563862    ( 0.0000,  0.0000,  0.0000)

Unit cell:
           periodic     x           y           z      points  spacing
  1. axis:    yes   11.404885    0.000000    0.000000    70     0.1629
  2. axis:    yes    0.000000   11.404885    0.000000    70     0.1629
  3. axis:    yes    0.000000    0.000000   11.404885    70     0.1629

  Lengths:  11.404885  11.404885  11.404885
  Angles:   90.000000  90.000000  90.000000

Effective grid spacing dv^(1/3) = 0.1629

     iter     time        total  log10-change:
                         energy   eigst   dens
iter:   1 13:57:00  -136.662994   -3.54
iter:   2 13:57:39  -136.663031   -4.66  -3.39
iter:   3 13:58:18  -136.662558c  -5.27  -3.41
iter:   4 13:58:58  -136.662498c  -5.55  -3.69
iter:   5 13:59:37  -136.662523c  -6.30  -3.84
iter:   6 14:00:17  -136.662518c  -6.33  -4.08c
iter:   7 14:00:56  -136.662511c  -7.24  -4.24c
iter:   8 14:01:35  -136.662517c  -6.91  -4.34c
iter:   9 14:02:15  -136.662512c  -7.67c -4.64c

Converged after 9 iterations.

Dipole moment: (29.893194, 11.893063, -5.790405) |e|*Ang

Energy contributions relative to reference atoms: (reference = -6521360.154902)

Kinetic:       +197.624182
Potential:     -206.981016
External:        +0.000000
XC:            -127.259450
Entropy (-ST):   -0.140134
Local:           +0.023839
SIC:             +0.000000
--------------------------
Free energy:   -136.732579
Extrapolated:  -136.662512

Showing only first 2 kpts
 Kpt  Band  Eigenvalues  Occupancy
  0   170      1.06612    2.00000
  0   171      1.41789    2.00000
  0   172      4.16835   
Forces in eV/Ang:
  0 Cs    0.00003    0.00182   -0.00812
  1 Pb   -0.00000    0.01469    0.02231
  2 Cl   -0.07009    0.00418   -0.01427
  3 Cl    0.00000   -0.00338    0.08660
  4 Cs    0.03181    0.05316    0.02222
  5 Pb   -0.00000   -0.01865   -0.05958
  
Forces in eV/Ang:
  0 Cs   -0.00031   -0.00891    0.00240
  1 Pb   -0.00000    0.02061    0.02460
  2 Cl   -0.06880   -0.01451    0.00487
  3 Cl    0.00000    0.08645   -0.01057
  4 Cs    0.02056    0.01594    0.01302
  5 Pb   -0.00000   -0.03875   -0.13269
  6 Cl    0.00000    0.01109   -0.02368
  7 Cl   -0.02017   -0.00662    0.02276
  8 Cl    0.00000   -0.02149   -0.04257
  9 Cs    0.03288    0.02272    0.05358
 10 Pb   -0.00000   -0.06157   -0.01790
 11 Cl    0.00000    0.02900   -0.07999
 12 Cl   -0.06703    0.01704    0.00032
 13 Cl    0.00000   -0.03493   -0.00253
 14 Cs    0.06472   -0.01620   -0.04128
 15 Pb   -0.00000    0.01372    0.02112
 16 Cl    0.00000   -0.01944    0.07566
 17 Cl   -0.00495   -0.00110   -0.00029
 18 Cl    0.00000   -0.00981    0.04770
 19 Cs    0.00031   -0.00891    0.00240
 20 Pb   -0.00000   -0.00506   -0.01325
 21 Cl    0.00000   -0.00253   -0.02102
 22 Cl    0.06880   -0.01451    0.00487
 23 Cl   -0.00000   -0.00506    0.00029
 24 Cs   -0.02056    0.01594    0.01302
 25 Pb   -0.00000   -0.00238    0.02725
 26 Cl    0.00000   -0.00137    0.03270
 27 Cl    0.02017   -0.00662    0.02276
 28 Cl    0.00000    0.00274   -0.00198
 29 Cs   -0.03288    0.02272    0.05358
 30 Pb   -0.00000    0.00768   -0.00278
 31 Cl    0.00000   -0.00309   -0.01436
 32 Cl    0.06703    0.01704    0.00032
 33 Cl    0.00000    0.01000    0.00074
 34 Cs   -0.06472   -0.01620   -0.04128
 35 Pb   -0.00000    0.00301    0.00496
 36 Cl    0.00000    0.00124    0.01632
 37 Cl    0.00495   -0.00110   -0.00029
 38 Cl    0.00000   -0.00203   -0.00210

System changes: positions 

Initializing position-dependent things.

Density initialized from wave functions
                                           
                                           
                                           
                                           
             Cl     Pb     Cl     Pb       
                                           
                  Cl            Cl         
                Pb                         
         Cl         Cl Cl     Pb  Cl       
           Cs            Cs Cl             
              Cl                           
             Cl Cl  Pb     Cl Cl  Pb       
                                           
       Cs         Cl  Cs        Cl         
                                           
         Cl     Pb  Cl Cl     Pb  Cl       
           Cs            Cs                
                            Cl             
                              Cl           
                Cl                         
       Cs             Cs                   
                                           
                                           
                                           
                                           

Atomic positions and initial magnetic moments

Positions:
   0 Cs    -0.072527   -0.033453   -0.053991    ( 0.0000,  0.0000,  0.0000)
   1 Pb     2.851221    2.680129    2.938173    ( 0.0000,  0.0000,  0.0000)
   2 Cl     0.015273    2.806481    2.888112    ( 0.0000,  0.0000,  0.0000)
   3 Cl     2.851221    2.046334    0.126437    ( 0.0000,  0.0000,  0.0000)
   4 Cs    -0.071503   -0.000408    5.795690    ( 0.0000,  0.0000,  0.0000)
   5 Pb     2.851221    2.781751    8.737470    ( 0.0000,  0.0000,  0.0000)
   6 Cl     2.851221    2.791515    5.846706    ( 0.0000,  0.0000,  0.0000)
   7 Cl     0.004161    2.846555    8.604495    ( 0.0000,  0.0000,  0.0000)
   8 Cl     2.851221   -0.031273    8.428481    ( 0.0000,  0.0000,  0.0000)
   9 Cs    -0.037361    5.785784    0.058769    ( 0.0000,  0.0000,  0.0000)
  10 Pb     2.851221    8.726002    2.859390    ( 0.0000,  0.0000,  0.0000)
  11 Cl     2.851221    8.599065    0.017917    ( 0.0000,  0.0000,  0.0000)
  12 Cl     0.010039    8.617215    2.844305    ( 0.0000,  0.0000,  0.0000)
  13 Cl     2.851221    5.699290    2.783090    ( 0.0000,  0.0000,  0.0000)
  14 Cs     0.043238    5.708654    5.673013    ( 0.0000,  0.0000,  0.0000)
  15 Pb     2.851221    8.523925    8.558189    ( 0.0000,  0.0000,  0.0000)
  16 Cl     2.851221    8.581820    5.688494    ( 0.0000,  0.0000,  0.0000)
  17 Cl    -0.002136    8.559241    8.557082    ( 0.0000,  0.0000,  0.0000)
  18 Cl     2.851221    5.671416    8.679601    ( 0.0000,  0.0000,  0.0000)
  19 Cs     5.774970   -0.033453   -0.053991    ( 0.0000,  0.0000,  0.0000)
  20 Pb     8.553664    2.846493    2.860305    ( 0.0000,  0.0000,  0.0000)
  21 Cl     8.553664    2.848458    0.007514    ( 0.0000,  0.0000,  0.0000)
  22 Cl     5.687170    2.806481    2.888112    ( 0.0000,  0.0000,  0.0000)
  23 Cl     8.553664    0.001847    2.851573    ( 0.0000,  0.0000,  0.0000)
  24 Cs     5.773946   -0.000408    5.795690    ( 0.0000,  0.0000,  0.0000)
  25 Pb     8.553664    2.866084    8.559831    ( 0.0000,  0.0000,  0.0000)
  26 Cl     8.553664    2.835322    5.701824    ( 0.0000,  0.0000,  0.0000)
  27 Cl     5.698281    2.846555    8.604495    ( 0.0000,  0.0000,  0.0000)
  28 Cl     8.553664   -0.000770    8.544653    ( 0.0000,  0.0000,  0.0000)
  29 Cs     5.739804    5.785784    0.058769    ( 0.0000,  0.0000,  0.0000)
  30 Pb     8.553664    8.566253    2.859028    ( 0.0000,  0.0000,  0.0000)
  31 Cl     8.553664    8.538149    0.002699    ( 0.0000,  0.0000,  0.0000)
  32 Cl     5.692404    8.617215    2.844305    ( 0.0000,  0.0000,  0.0000)
  33 Cl     8.553664    5.705152    2.835906    ( 0.0000,  0.0000,  0.0000)
  34 Cs     5.659205    5.708654    5.673013    ( 0.0000,  0.0000,  0.0000)
  35 Pb     8.553664    8.541128    8.548445    ( 0.0000,  0.0000,  0.0000)
  36 Cl     8.553664    8.564884    5.701031    ( 0.0000,  0.0000,  0.0000)
  37 Cl     5.704578    8.559241    8.557082    ( 0.0000,  0.0000,  0.0000)
  38 Cl     8.553664    5.705969    8.563256    ( 0.0000,  0.0000,  0.0000)

Unit cell:
           periodic     x           y           z      points  spacing
  1. axis:    yes   11.404885    0.000000    0.000000    70     0.1629
  2. axis:    yes    0.000000   11.404885    0.000000    70     0.1629
  3. axis:    yes    0.000000    0.000000   11.404885    70     0.1629

  Lengths:  11.404885  11.404885  11.404885
  Angles:   90.000000  90.000000  90.000000

Effective grid spacing dv^(1/3) = 0.1629

     iter     time        total  log10-change:
                         energy   eigst   dens
iter:   1 14:33:40  -136.670899   -2.64
iter:   2 14:34:20  -136.671353   -3.74  -2.95
iter:   3 14:34:59  -136.668263c  -4.40  -2.96
iter:   4 14:35:39  -136.667835c  -4.63  -3.21
iter:   5 14:36:18  -136.667883c  -5.40  -3.40
iter:   6 14:36:58  -136.667915c  -5.47  -3.65
iter:   7 14:37:37  -136.667894c  -6.35  -3.82
iter:   8 14:38:17  -136.667884c  -5.99  -3.88
iter:   9 14:38:56  -136.667880c  -6.82  -4.22c
iter:  10 14:39:35  -136.667877c  -7.26  -4.27c
iter:  11 14:40:22  -136.667877c  -7.41c -4.58c

Converged after 11 iterations.

Dipole moment: (15.071146, 13.442560, -19.377259) |e|*Ang

Energy contributions relative to reference atoms: (reference = -6521360.154902)

Kinetic:       +196.606450
Potential:     -206.163259
External:        +0.000000
XC:            -127.064373
Entropy (-ST):   -0.139307
Local:           +0.022958
SIC:             +0.000000
--------------------------
Free energy:   -136.737531
Extrapolated:  -136.667877

Showing only first 2 kpts
 Kpt  Band  Eigenvalues  Occupancy
  0   170      1.05446    2.00000
  0   171      1.41311    2.00000
  0   172      4.08374   
Forces in eV/Ang:
  0 Cs   -0.03228   -0.01373   -0.01434
  1 Pb   -0.00000    0.05540    0.08446
  2 Cl   -0.08836    0.00601   -0.01685
  3 Cl   -0.00000    0.04654    0.07362
  4 Cs    0.02322    0.03357    0.01669
  5 Pb   -0.00000   -0.02886   -0.10522
  6 Cl   -0.00000    0.00408   -0.02493
  7 Cl   -0.08183    0.00112    0.02116
  8 Cl    0.00000   -0.09700    0.04186
  9 Cs    0.00818    0.02817    0.01623
 10 Pb   -0.00000   -0.19148   -0.01368
 11 Cl    0.00000   -0.05342   -0.03423
 12 Cl   -0.03066    0.02803   -0.00792
 13 Cl    0.00000   -0.05545    0.01587
 14 Cs    0.04577   -0.02807   -0.02129
 15 Pb   -0.00000    0.02513    0.03491
 16 Cl    0.00000    0.06145   -0.00995
 17 Cl   -0.00892   -0.00054   -0.00201
 18 Cl    0.00000    0.09268   -0.03321
 19 Cs    0.03228   -0.01373   -0.01434
 20 Pb   -0.00000   -0.01978   -0.00448
 21 Cl   -0.00000   -0.00145   -0.00806
 22 Cl    0.08836    0.00601   -0.01685
 23 Cl   -0.00000   -0.02353   -0.00461
 24 Cs   -0.02322    0.03357    0.01669
 25 Pb   -0.00000   -0.00275    0.00534
 26 Cl    0.00000    0.00366    0.01447
 27 Cl    0.08183    0.00112    0.02116
 28 Cl    0.00000   -0.01859   -0.00095
 29 Cs   -0.00818    0.02817    0.01623
 30 Pb   -0.00000    0.03645   -0.00114
 31 Cl    0.00000   -0.00081    0.00028
 32 Cl    0.03066    0.02803   -0.00792
 33 Cl    0.00000    0.04486   -0.00011
 34 Cs   -0.04577   -0.02807   -0.02129
 35 Pb   -0.00000    0.00618    0.00033
 36 Cl   -0.00000   -0.00440    0.00037
 37 Cl    0.00892   -0.00054   -0.00201
 38 Cl   -0.00000    0.02204    0.00016

System changes: positions 

Initializing position-dependent things.

Density initialized from wave functions
                                           
                                           
                                           
                                           
             Cl     Pb     Cl     Pb       
                                           
                  Cl            Cl         
                Pb                         
         Cl         Cl Cl     Pb  Cl       
           Cs Cl         Cs Cl             
                                           
             Cl Cl  Pb     Cl Cl  Pb       
                                           
       Cs         Cl Cs         Cl         
                                           
         Cl     Pb  Cl Cl     Pb  Cl       
                                           
           Cs            Cs Cl             
              Cl              Cl           
                                           
       Cs             Cs                   
                                           
                                           
                                           
                                           

Atomic positions and initial magnetic moments

Positions:
   0 Cs    -0.066443   -0.055442   -0.029246    ( 0.0000,  0.0000,  0.0000)
   1 Pb     2.851221    2.939184    2.666869    ( 0.0000,  0.0000,  0.0000)
   2 Cl     0.017217    2.889228    2.805879    ( 0.0000,  0.0000,  0.0000)
   3 Cl     2.851221    0.114150    2.055124    ( 0.0000,  0.0000,  0.0000)
   4 Cs    -0.022185    0.074130    5.788312    ( 0.0000,  0.0000,  0.0000)
   5 Pb     2.851221    2.858195    8.734644    ( 0.0000,  0.0000,  0.0000)
   6 Cl     2.851221    2.775990    5.692797    ( 0.0000,  0.0000,  0.0000)
   7 Cl     0.011426    2.848707    8.623030    ( 0.0000,  0.0000,  0.0000)
   8 Cl     2.851221    0.016885    8.599431    ( 0.0000,  0.0000,  0.0000)
   9 Cs    -0.071667    5.793901   -0.001149    ( 0.0000,  0.0000,  0.0000)
  10 Pb     2.851221    8.730995    2.777467    ( 0.0000,  0.0000,  0.0000)
  11 Cl     2.851221    8.418530   -0.033756    ( 0.0000,  0.0000,  0.0000)
  12 Cl     0.004787    8.612050    2.845778    ( 0.0000,  0.0000,  0.0000)
  13 Cl     2.851221    5.831981    2.789805    ( 0.0000,  0.0000,  0.0000)
  14 Cs     0.056853    5.658699    5.711338    ( 0.0000,  0.0000,  0.0000)
  15 Pb     2.851221    8.556958    8.520894    ( 0.0000,  0.0000,  0.0000)
  16 Cl     2.851221    8.690812    5.668830    ( 0.0000,  0.0000,  0.0000)
  17 Cl    -0.001133    8.553934    8.560634    ( 0.0000,  0.0000,  0.0000)
  18 Cl     2.851221    5.684945    8.585040    ( 0.0000,  0.0000,  0.0000)
  19 Cs     5.768886   -0.055442   -0.029246    ( 0.0000,  0.0000,  0.0000)
  20 Pb     8.553664    2.860834    2.846940    ( 0.0000,  0.0000,  0.0000)
  21 Cl     8.553664    2.857123    0.003430    ( 0.0000,  0.0000,  0.0000)
  22 Cl     5.685225    2.889228    2.805879    ( 0.0000,  0.0000,  0.0000)
  23 Cl     8.553664    0.008051    2.847609    ( 0.0000,  0.0000,  0.0000)
  24 Cs     5.724628    0.074130    5.788312    ( 0.0000,  0.0000,  0.0000)
  25 Pb     8.553664    2.859223    8.568723    ( 0.0000,  0.0000,  0.0000)
  26 Cl     8.553664    2.839236    5.706499    ( 0.0000,  0.0000,  0.0000)
  27 Cl     5.691017    2.848707    8.623030    ( 0.0000,  0.0000,  0.0000)
  28 Cl     8.553664    0.003348    8.537826    ( 0.0000,  0.0000,  0.0000)
  29 Cs     5.774110    5.793901   -0.001149    ( 0.0000,  0.0000,  0.0000)
  30 Pb     8.553664    8.560513    2.868364    ( 0.0000,  0.0000,  0.0000)
  31 Cl     8.553664    8.541896    0.000011    ( 0.0000,  0.0000,  0.0000)
  32 Cl     5.697656    8.612050    2.845778    ( 0.0000,  0.0000,  0.0000)
  33 Cl     8.553664    5.701377    2.833636    ( 0.0000,  0.0000,  0.0000)
  34 Cs     5.645590    5.658699    5.711338    ( 0.0000,  0.0000,  0.0000)
  35 Pb     8.553664    8.548307    8.539860    ( 0.0000,  0.0000,  0.0000)
  36 Cl     8.553664    8.560823    5.706232    ( 0.0000,  0.0000,  0.0000)
  37 Cl     5.703576    8.553934    8.560634    ( 0.0000,  0.0000,  0.0000)
  38 Cl     8.553664    5.700553    8.566259    ( 0.0000,  0.0000,  0.0000)

Unit cell:
           periodic     x           y           z      points  spacing
  1. axis:    yes   11.404885    0.000000    0.000000    70     0.1629
  2. axis:    yes    0.000000   11.404885    0.000000    70     0.1629
  3. axis:    yes    0.000000    0.000000   11.404885    70     0.1629

  Lengths:  11.404885  11.404885  11.404885
  Angles:   90.000000  90.000000  90.000000

Effective grid spacing dv^(1/3) = 0.1629

     iter     time        total  log10-change:
                         energy   eigst   dens
iter:   1 14:41:25  -136.671846   -3.72
