
  ___ ___ ___ _ _ _  
 |   |   |_  | | | | 
 | | | | | . | | | | 
 |__ |  _|___|_____|  25.7.0
 |___|_|             

User:   buyer@DESKTOP-3EQA59H
Date:   Sun Jul 19 02:39:30 2026
Arch:   x86_64
Pid:    35137
CWD:    /mnt/c/Users/Buyer/dft-si
Python: 3.11.15
gpaw:   /home/buyer/miniconda3/envs/dft/lib/python3.11/site-packages/gpaw
_gpaw:  /home/buyer/miniconda3/envs/dft/lib/python3.11/site-packages/
        _gpaw.cpython-311-x86_64-linux-gnu.so
ase:    /home/buyer/miniconda3/envs/dft/lib/python3.11/site-packages/ase (version 3.29.0)
numpy:  /home/buyer/miniconda3/envs/dft/lib/python3.11/site-packages/numpy (version 2.4.6)
scipy:  /home/buyer/miniconda3/envs/dft/lib/python3.11/site-packages/scipy (version 1.17.1)
libxc:  7.0.0
units:  Angstrom and eV
cores: 1
OpenMP: True
OMP_NUM_THREADS: 1

Input parameters:
  kpts: [2 2 2]
  mode: {ecut: 600.0,
         name: pw}
  xc: PBE

System changes: positions, numbers, cell, pbc, initial_charges, initial_magmoms 

Initialize ...

species:
  Cs:
    name: Caesium
    id: fa822afd343f47335d508b9ee4f394c3
    Z: 55.0
    valence: 9
    core: 46
    charge: 0.0
    file: /home/buyer/miniconda3/envs/dft/lib/python3.11/site-packages/gpaw_data/setups/Cs.PBE.gz
    compensation charges: {type: gauss,
                           rc: 0.33,
                           lmax: 2}
    cutoffs: {filter: 2.06,
              core: 2.51}
    projectors:
      #              energy  rcut
      - 5s(2.00)   -26.706   1.164
      - 6s(1.00)    -2.085   1.164
      - 5p(6.00)   -13.523   1.058
      -  p          13.688   1.058
      -  d           0.000   1.058
  
    # Using partial waves for Cs as LCAO basis

  Pb:
    name: Lead
    id: 66e73b13d76dc837202bcdb13fee58e6
    Z: 82.0
    valence: 14
    core: 68
    charge: 0.0
    file: /home/buyer/miniconda3/envs/dft/lib/python3.11/site-packages/gpaw_data/setups/Pb.PBE.gz
    compensation charges: {type: gauss,
                           rc: 0.38,
                           lmax: 2}
    cutoffs: {filter: 2.36,
              core: 2.43}
    projectors:
      #              energy  rcut
      - 6s(2.00)   -11.969   1.259
      - 6p(2.00)    -3.506   1.275
      - 5d(10.00)   -21.211   1.217
      -  s          15.243   1.259
      -  p          23.705   1.275
      -  d           6.001   1.217
  
    # Using partial waves for Pb as LCAO basis

  Cl:
    name: Chlorine
    id: 726897f06f34e53cf8e33b5885a02604
    Z: 17.0
    valence: 7
    core: 10
    charge: 0.0
    file: /home/buyer/miniconda3/envs/dft/lib/python3.11/site-packages/gpaw_data/setups/Cl.PBE.gz
    compensation charges: {type: gauss,
                           rc: 0.25,
                           lmax: 2}
    cutoffs: {filter: 1.40,
              core: 1.49}
    projectors:
      #              energy  rcut
      - 3s(2.00)   -20.689   0.794
      - 3p(5.00)    -8.594   0.794
      -  s           6.523   0.794
      -  p          18.617   0.794
      -  d           0.000   0.794
  
    # Using partial waves for Cl as LCAO basis

Reference energy: -6521360.154902  # eV

Spin-paired calculation

Convergence criteria:
 Maximum [total energy] change in last 3 cyles: 0.0005 eV / valence electron
 Maximum integral of absolute [dens]ity change: 0.0001 electrons / valence electron
 Maximum integral of absolute [eigenst]ate change: 4e-08 eV^2 / valence electron
 Maximum number of scf [iter]ations: 333
 (Square brackets indicate name in SCF output, whereas a 'c' in
 the SCF output indicates the quantity has converged.)

Symmetries present (total): 4

  ( 1  0  0)  ( 1  0  0)  ( 0  1  0)  ( 0  1  0)
  ( 0  1  0)  ( 0  1  0)  ( 1  0  0)  ( 1  0  0)
  ( 0  0  1)  ( 0  0 -1)  ( 0  0  1)  ( 0  0 -1)

8 k-points: 2 x 2 x 2 Monkhorst-Pack grid
2 k-points in the irreducible part of the Brillouin zone
       k-points in crystal coordinates                weights
   0:     0.25000000   -0.25000000    0.25000000          4/8
   1:     0.25000000    0.25000000    0.25000000          4/8

Wave functions: Plane wave expansion
  Cutoff energy: 600.000 eV
  Number of coefficients (min, max): 49520, 49520
  Pulay-stress correction: 0.000000 eV/Ang^3 (de/decut=0.000000)
  Using FFTW library
  ScaLapack parameters: grid=1x1, blocksize=None
  Wavefunction extrapolation:
    Improved wavefunction reuse through dual PAW basis 

Occupation numbers: Fermi-Dirac:
  width: 0.1000  # eV
 

Eigensolver
   Davidson(niter=2) 

Densities:
  Coarse grid: 70*70*70 grid
  Fine grid: 140*140*140 grid
  Total Charge: 0.000000 

Density mixing:
  Method: separate
  Backend: pulay
  Linear mixing parameter: 0.05
  old densities: 5
  Damping of long wavelength oscillations: 50 

Hamiltonian:
  XC and Coulomb potentials evaluated on a 140*140*140 grid
  Using the PBE Exchange-Correlation functional
  External potential:
    NoExternalPotential
 

XC parameters: PBE with 2 nearest neighbor stencil

Memory estimate:
  Process memory now: 336.26 MiB
  Calculator: 729.37 MiB
    Density: 173.28 MiB
      Arrays: 68.04 MiB
      Localized functions: 79.08 MiB
      Mixer: 26.17 MiB
    Hamiltonian: 46.62 MiB
      Arrays: 44.49 MiB
      XC: 0.00 MiB
      Poisson: 0.00 MiB
      vbar: 2.14 MiB
    Wavefunctions: 509.46 MiB
      Arrays psit_nG: 308.29 MiB
      Eigensolver: 164.28 MiB
      Projections: 3.41 MiB
      Projectors: 18.89 MiB
      PW-descriptor: 14.60 MiB

Total number of cores used: 1

Number of atoms: 39
Number of atomic orbitals: 204
Number of bands in calculation: 204
Number of valence electrons: 345
Bands to converge: occupied

... initialized

Initializing position-dependent things.

Density initialized from atomic densities
Creating initial wave functions:
  204 bands from LCAO basis set

                                           
                                           
                                           
                                           
             Cl     Pb     Cl     Pb       
                  Cl            Cl         
                                           
         Cl     Pb  Cl Cl     Pb  Cl       
                                           
           Cs  Cl        Cs Cl             
                    Pb            Pb       
             Cl Cl         Cl Cl           
                  Cl            Cl         
       Cs             Cs                   
         Cl     Pb  Cl Cl     Pb  Cl       
                                           
           Cs  Cl        Cs Cl             
                              Cl           
                                           
       Cs             Cs                   
                                           
                                           
                                           
                                           

Atomic positions and initial magnetic moments

Positions:
   0 Cs    -0.133080   -0.133080   -0.000000    ( 0.0000,  0.0000,  0.0000)
   1 Pb     2.851221    2.851221    2.941364    ( 0.0000,  0.0000,  0.0000)
   2 Cl     0.037181    2.851221    2.811337    ( 0.0000,  0.0000,  0.0000)
   3 Cl     2.851221    0.037181    2.811337    ( 0.0000,  0.0000,  0.0000)
   4 Cs    -0.074644   -0.074644    5.702443    ( 0.0000,  0.0000,  0.0000)
   5 Pb     2.851221    2.851221    8.463522    ( 0.0000,  0.0000,  0.0000)
   6 Cl     2.851221    2.851221    5.702443    ( 0.0000,  0.0000,  0.0000)
   7 Cl     0.037181    2.851221    8.593549    ( 0.0000,  0.0000,  0.0000)
   8 Cl     2.851221    0.037181    8.593549    ( 0.0000,  0.0000,  0.0000)
   9 Cs    -0.133080    5.835523    0.000000    ( 0.0000,  0.0000,  0.0000)
  10 Pb     2.851221    8.553664    2.846630    ( 0.0000,  0.0000,  0.0000)
  11 Cl     2.851221    8.553664    0.000000    ( 0.0000,  0.0000,  0.0000)
  12 Cl    -0.002753    8.553664    2.833318    ( 0.0000,  0.0000,  0.0000)
  13 Cl     2.851221    5.665262    2.811337    ( 0.0000,  0.0000,  0.0000)
  14 Cs    -0.074644    5.777087    5.702443    ( 0.0000,  0.0000,  0.0000)
  15 Pb     2.851221    8.553664    8.558255    ( 0.0000,  0.0000,  0.0000)
  16 Cl     2.851221    8.553664    5.702443    ( 0.0000,  0.0000,  0.0000)
  17 Cl    -0.002753    8.553664    8.571568    ( 0.0000,  0.0000,  0.0000)
  18 Cl     2.851221    5.665262    8.593549    ( 0.0000,  0.0000,  0.0000)
  19 Cs     5.835523   -0.133080   -0.000000    ( 0.0000,  0.0000,  0.0000)
  20 Pb     8.553664    2.851221    2.846630    ( 0.0000,  0.0000,  0.0000)
  21 Cl     8.553664    2.851221    0.000000    ( 0.0000,  0.0000,  0.0000)
  22 Cl     5.665262    2.851221    2.811337    ( 0.0000,  0.0000,  0.0000)
  23 Cl     8.553664   -0.002753    2.833318    ( 0.0000,  0.0000,  0.0000)
  24 Cs     5.777087   -0.074644    5.702443    ( 0.0000,  0.0000,  0.0000)
  25 Pb     8.553664    2.851221    8.558255    ( 0.0000,  0.0000,  0.0000)
  26 Cl     8.553664    2.851221    5.702443    ( 0.0000,  0.0000,  0.0000)
  27 Cl     5.665262    2.851221    8.593549    ( 0.0000,  0.0000,  0.0000)
  28 Cl     8.553664   -0.002753    8.571568    ( 0.0000,  0.0000,  0.0000)
  29 Cs     5.835523    5.835523    0.000000    ( 0.0000,  0.0000,  0.0000)
  30 Pb     8.553664    8.553664    2.858806    ( 0.0000,  0.0000,  0.0000)
  31 Cl     8.553664    8.553664    0.000000    ( 0.0000,  0.0000,  0.0000)
  32 Cl     5.705196    8.553664    2.833318    ( 0.0000,  0.0000,  0.0000)
  33 Cl     8.553664    5.705196    2.833318    ( 0.0000,  0.0000,  0.0000)
  34 Cs     5.777087    5.777087    5.702443    ( 0.0000,  0.0000,  0.0000)
  35 Pb     8.553664    8.553664    8.546080    ( 0.0000,  0.0000,  0.0000)
  36 Cl     8.553664    8.553664    5.702443    ( 0.0000,  0.0000,  0.0000)
  37 Cl     5.705196    8.553664    8.571568    ( 0.0000,  0.0000,  0.0000)
  38 Cl     8.553664    5.705196    8.571568    ( 0.0000,  0.0000,  0.0000)

Unit cell:
           periodic     x           y           z      points  spacing
  1. axis:    yes   11.404885    0.000000    0.000000    70     0.1629
  2. axis:    yes    0.000000   11.404885    0.000000    70     0.1629
  3. axis:    yes    0.000000    0.000000   11.404885    70     0.1629

  Lengths:  11.404885  11.404885  11.404885
  Angles:   90.000000  90.000000  90.000000

Effective grid spacing dv^(1/3) = 0.1629

     iter     time        total  log10-change:
                         energy   eigst   dens
iter:   1 02:40:44  -142.286881
iter:   2 02:41:04  -141.237046   -1.03  -1.22
iter:   3 02:41:26  -137.226472   -1.45  -1.27
iter:   4 02:41:46  -136.686027   -1.40  -1.49
iter:   5 02:42:06  -136.585485   -2.52  -1.65
iter:   6 02:42:26  -136.508614   -3.11  -2.05
iter:   7 02:42:47  -136.477430c  -3.02  -2.28
iter:   8 02:43:06  -136.461151c  -3.84  -2.29
iter:   9 02:43:26  -136.461508c  -4.94  -2.70
iter:  10 02:43:46  -136.466764c  -4.72  -2.73
iter:  11 02:44:17  -136.466851c  -5.18  -3.03
iter:  12 02:44:36  -136.467181c  -6.19  -3.27
iter:  13 02:44:56  -136.467181c  -6.09  -3.23
iter:  14 02:45:17  -136.466980c  -6.56  -3.25
iter:  15 02:45:36  -136.465548c  -5.53  -3.28
iter:  16 02:45:54  -136.466149c  -6.06  -3.56
iter:  17 02:46:13  -136.466682c  -6.57  -3.69
iter:  18 02:46:31  -136.466561c  -7.00  -3.84
iter:  19 02:46:50  -136.466533c  -7.12  -3.93
iter:  20 02:47:08  -136.466630c  -7.47c -3.88
iter:  21 02:47:28  -136.466726c  -7.62c -3.92
iter:  22 02:48:01  -136.466617c  -7.26  -4.00c
iter:  23 02:48:20  -136.466582c  -7.32  -4.37c
iter:  24 02:48:40  -136.466604c  -8.87c -4.53c

Converged after 24 iterations.

Dipole moment: (45.203490, 45.203490, 0.000000) |e|*Ang

Energy contributions relative to reference atoms: (reference = -6521360.154902)

Kinetic:       +206.140896
Potential:     -213.857332
External:        +0.000000
XC:            -128.678624
Entropy (-ST):   -0.171634
Local:           +0.014273
SIC:             +0.000000
--------------------------
Free energy:   -136.552421
Extrapolated:  -136.466604

Showing all kpts
 Kpt  Band  Eigenvalues  Occupancy
  0   170      1.14492    2.00000
  0   171      1.48830    2.00000
  0   172      4.53587    0.94152
  0   173      4.94612    0.02898

  1   170      1.14492    2.00000
  1   171      1.48830    2.00000
  1   172      4.53587    0.94152
  1   173      4.94612    0.02898


Fermi level: 4.52416

Gap: 3.048 eV
Transition (v -> c):
  (s=0, k=1, n=171, [0.25, 0.25, 0.25]) -> (s=0, k=1, n=172, [0.25, 0.25, 0.25])
No difference between direct/indirect transitions
Timing:                              incl.     excl.
-----------------------------------------------------------
Hamiltonian:                         2.115     0.006   0.0% |
 Atomic:                             0.765     0.002   0.0% |
  XC Correction:                     0.763     0.763   0.0% |
 Calculate atomic Hamiltonians:      0.765     0.765   0.0% |
 Communicate:                        0.000     0.000   0.0% |
 Initialize Hamiltonian:             0.001     0.001   0.0% |
 Poisson:                            0.008     0.008   0.0% |
 XC 3D grid:                         0.570     0.570   0.0% |
LCAO initialization:                42.926     0.084   0.0% |
 LCAO eigensolver:                   1.571     0.000   0.0% |
  Calculate projections:             0.117     0.117   0.0% |
  DenseAtomicCorrection:             0.181     0.181   0.0% |
  Distribute overlap matrix:         0.001     0.001   0.0% |
  Orbital Layouts:                   0.174     0.174   0.0% |
  Potential matrix:                  1.040     1.040   0.1% |
  Sum over cells:                    0.058     0.058   0.0% |
 LCAO to grid:                      40.905    40.905   2.4% ||
 Set positions (LCAO WFS):           0.366     0.060   0.0% |
  Basic WFS set positions:           0.002     0.002   0.0% |
  Basis functions set positions:     0.000     0.000   0.0% |
  P tci:                             0.223     0.223   0.0% |
  ST tci:                            0.073     0.073   0.0% |
  mktci:                             0.009     0.009   0.0% |
PWDescriptor:                        0.153     0.153   0.0% |
SCF-cycle:                         499.762     0.061   0.0% |
 Davidson:                         397.373    76.353   4.5% |-|
  Apply H:                          59.212    57.719   3.4% ||
   HMM T:                            1.493     1.493   0.1% |
  Subspace diag:                    79.534     0.006   0.0% |
   calc_h_matrix:                   68.332     7.498   0.4% |
    Apply H:                        60.834    59.007   3.5% ||
     HMM T:                          1.827     1.827   0.1% |
   diagonalize:                      3.601     3.601   0.2% |
   rotate_psi:                       7.595     7.595   0.4% |
  calc. matrices:                  154.404    33.684   2.0% ||
   Apply H:                        120.720   117.555   6.9% |--|
    HMM T:                           3.165     3.165   0.2% |
  diagonalize:                      14.279    14.279   0.8% |
  rotate_psi:                       13.590    13.590   0.8% |
 Density:                           52.646     0.000   0.0% |
  Atomic density matrices:           0.095     0.095   0.0% |
  Mix:                              21.284    21.284   1.3% ||
  Multipole moments:                 0.008     0.008   0.0% |
  Pseudo density:                   31.258    30.065   1.8% ||
   Symmetrize density:               1.194     1.194   0.1% |
 Hamiltonian:                       48.296     0.142   0.0% |
  Atomic:                           17.753     0.048   0.0% |
   XC Correction:                   17.706    17.706   1.0% |
  Calculate atomic Hamiltonians:    17.871    17.871   1.1% |
  Communicate:                       0.000     0.000   0.0% |
  Poisson:                           0.241     0.241   0.0% |
  XC 3D grid:                       12.289    12.289   0.7% |
 Orthonormalize:                     1.387     0.000   0.0% |
  calc_s_matrix:                     0.190     0.190   0.0% |
  inverse-cholesky:                  0.038     0.038   0.0% |
  projections:                       0.915     0.915   0.1% |
  rotate_psi_s:                      0.244     0.244   0.0% |
Set symmetry:                        0.001     0.001   0.0% |
Other:                            1154.165  1154.165  67.9% |--------------------------|
-----------------------------------------------------------
Total:                                      1699.123 100.0%

Memory usage: 3.66 GiB
Date: Sun Jul 19 03:07:50 2026
