39
Lattice="11.404885457457713 3.871623298888526e-19 2.6491287164135604e-19 3.4881763357273366e-17 11.404885457462738 1.8551693266735985e-12 6.816313686707039e-17 2.1458579296244505e-12 11.404885457457695" Properties=species:S:1:pos:R:3:spacegroup_kinds:I:1:forces:R:3:energies:R:1 spacegroup="P m -3 m" unit_cell=conventional energy=-138.32345894685886 stress="-0.0015170356602221952 1.3848232462419298e-18 -2.695424459931959e-19 1.3848232462419298e-18 -0.0015170356600990292 8.441524207905525e-15 -2.695424459931959e-19 8.441524207905525e-15 0.0003879038864901456" free_energy=-138.32345894685886 pbc="T T T"
Cs      -0.13308005      -0.13308005      -0.00000000        0       0.00007008       0.00007008      -0.00000000      -3.75137575
Pb       2.85122136       2.85122136       2.94136375        1       0.00000000       0.00000000      -0.01954091      -4.55892759
Cl       0.03718063       2.85122136       2.81133671        2      -0.00095695       0.00000000      -0.01016555      -3.04901120
Cl       2.85122136       0.03718063       2.81133671        2      -0.00000000      -0.00095695      -0.01016555      -3.04901120
Cs      -0.07464421      -0.07464421       5.70244273        0       0.00460078       0.00460078      -0.00000000      -3.77704790
Pb       2.85122136       2.85122136       8.46352171        1       0.00000000      -0.00000000       0.01954091      -4.55892759
Cl       2.85122136       2.85122136       5.70244273        2      -0.00000000       0.00000000      -0.00000000      -3.12556127
Cl       0.03718063       2.85122136       8.59354875        2      -0.00095695      -0.00000000       0.01016555      -3.04901120
Cl       2.85122136       0.03718063       8.59354875        2      -0.00000000      -0.00095695       0.01016555      -3.04901120
Cs      -0.13308005       5.83552278       0.00000000        0       0.00007008      -0.00007008       0.00000000      -3.75137575
Pb       2.85122136       8.55366409       2.84663048        1       0.00000000      -0.00000000      -0.00005257      -4.82272694
Cl       2.85122136       8.55366409       0.00000000        2      -0.00000000       0.00000000       0.00000000      -3.01995844
Cl      -0.00275336       8.55366409       2.83331775        2       0.01500242      -0.00000000      -0.00527010      -3.05272409
Cl       2.85122136       5.66526210       2.81133671        2      -0.00000000       0.00095695      -0.01016555      -3.04901120
Cs      -0.07464421       5.77708694       5.70244273        0       0.00460078      -0.00460078       0.00000000      -3.77704790
Pb       2.85122136       8.55366409       8.55825498        1       0.00000000       0.00000000       0.00005257      -4.82272694
Cl       2.85122136       8.55366409       5.70244273        2      -0.00000000      -0.00000000      -0.00000000      -3.03604469
Cl      -0.00275336       8.55366409       8.57156771        2       0.01500242       0.00000000       0.00527010      -3.05272409
Cl       2.85122136       5.66526210       8.59354875        2      -0.00000000       0.00095695       0.01016555      -3.04901120
Cs       5.83552278      -0.13308005      -0.00000000        0      -0.00007008       0.00007008      -0.00000000      -3.75137575
Pb       8.55366409       2.85122136       2.84663048        1      -0.00000000      -0.00000000      -0.00005257      -4.82272694
Cl       8.55366409       2.85122136       0.00000000        2      -0.00000000      -0.00000000       0.00000000      -3.01995844
Cl       5.66526210       2.85122136       2.81133671        2       0.00095695       0.00000000      -0.01016555      -3.04901120
Cl       8.55366409      -0.00275336       2.83331775        2      -0.00000000       0.01500242      -0.00527010      -3.05272409
Cs       5.77708694      -0.07464421       5.70244273        0      -0.00460078       0.00460078      -0.00000000      -3.77704790
Pb       8.55366409       2.85122136       8.55825498        1      -0.00000000       0.00000000       0.00005257      -4.82272694
Cl       8.55366409       2.85122136       5.70244273        2      -0.00000000       0.00000000      -0.00000000      -3.03604469
Cl       5.66526210       2.85122136       8.59354875        2       0.00095695      -0.00000000       0.01016555      -3.04901120
Cl       8.55366409      -0.00275336       8.57156771        2      -0.00000000       0.01500242       0.00527010      -3.05272409
Cs       5.83552278       5.83552278       0.00000000        0      -0.00007008      -0.00007008       0.00000000      -3.75137575
Pb       8.55366409       8.55366409       2.85880592        1      -0.00000000      -0.00000000       0.00276624      -4.79690054
Cl       8.55366409       8.55366409       0.00000000        2      -0.00000000      -0.00000000      -0.00000000      -3.07981267
Cl       5.70519609       8.55366409       2.83331775        2      -0.01500242      -0.00000000      -0.00527010      -3.05272409
Cl       8.55366409       5.70519609       2.83331775        2      -0.00000000      -0.01500242      -0.00527010      -3.05272409
Cs       5.77708694       5.77708694       5.70244273        0      -0.00460078      -0.00460078       0.00000000      -3.77704790
Pb       8.55366409       8.55366409       8.54607954        1       0.00000000      -0.00000000      -0.00276624      -4.79690054
Cl       8.55366409       8.55366409       5.70244273        2      -0.00000000      -0.00000000       0.00000000      -3.07593777
Cl       5.70519609       8.55366409       8.57156771        2      -0.01500242       0.00000000       0.00527010      -3.05272409
Cl       8.55366409       5.70519609       8.57156771        2      -0.00000000      -0.01500242       0.00527010      -3.05272409
