39
Lattice="12.78 0.0 0.0 0.0 12.78 0.0 0.0 0.0 12.5244" Properties=species:S:1:pos:R:3:spacegroup_kinds:I:1:forces:R:3:energies:R:1 spacegroup="P m -3 m" unit_cell=conventional energy=-110.7496903515975 stress="0.0008160652678290431 -2.8157094724997826e-18 -5.388587979731913e-19 -2.8157094724997826e-18 -0.0005755581682021511 4.049226799642762e-18 -5.388587979731913e-19 4.049226799642762e-18 -0.00478605109191949" free_energy=-110.7496903515975 pbc="T T T"
Cs       0.00000000      -0.15769080       0.15629332        0      -0.00000000       0.00124289      -0.00050262      -3.51782265
Pb       3.18597838       3.19500000       3.13110000        1      -0.00154474      -0.00000000       0.00000000      -4.46027849
I        3.06910075       3.19500000      -0.03037238        2      -0.01881821      -0.00000000      -0.00256415      -2.05805926
I       -0.00000000       3.19500000       3.13110000        2       0.00000000       0.00000000       0.00000000      -2.03857315
I        3.16089847       0.00131279       3.13110000        2       0.01362271      -0.01028620       0.00000000      -2.08014830
Cs       0.00000000      -0.15769080       6.10590668        0      -0.00000000       0.00124289       0.00050262      -3.51782265
Pb       3.30607493       3.19500000       9.39330000        1       0.01072133      -0.00000000       0.00000000      -4.15339767
I        3.06910075       3.19500000       6.29257238        2      -0.01881821      -0.00000000       0.00256415      -2.05805926
I        3.10366305       0.03242615       9.39330000        2       0.00276160      -0.00011823      -0.00000000      -2.07958468
Cs      -0.00000000       6.54769080       0.15629332        0      -0.00000000      -0.00124289      -0.00050262      -3.51782265
Pb       3.20353449       9.58500000       3.13110000        1       0.00002848      -0.00000000       0.00000000      -4.43795513
I        3.15772982       9.58500000      -0.00216196        2       0.00928465      -0.00000000       0.01256653      -2.05143452
I        0.00000000       9.58500000       3.13110000        2       0.00000000      -0.00000000       0.00000000      -2.10285769
I        3.16089847       6.38868721       3.13110000        2       0.01362271       0.01028620       0.00000000      -2.08014830
Cs      -0.00000000       6.54769080       6.10590668        0       0.00000000      -0.00124289       0.00050262      -3.51782265
Pb       3.18598692       9.58500000       9.39330000        1      -0.00109552      -0.00000000       0.00000000      -4.45245568
I        3.15772982       9.58500000       6.26436196        2       0.00928465      -0.00000000      -0.01256653      -2.05143452
I       -0.00000000       9.58500000       9.39330000        2      -0.00000000      -0.00000000       0.00000000      -2.04551660
I        3.10366305       6.35757385       9.39330000        2       0.00276160       0.00011823       0.00000000      -2.07958468
Cs       6.39000000      -0.05836067       0.05796844        0       0.00000000       0.00617539      -0.00810581      -3.50783055
Pb       9.59402162       3.19500000       3.13110000        1       0.00154474      -0.00000000       0.00000000      -4.46027849
I        9.71089925       3.19500000      -0.03037238        2       0.01881821      -0.00000000      -0.00256415      -2.05805926
I        6.39000000       3.19500000       3.13110000        2      -0.00000000      -0.00000000       0.00000000      -2.08509723
I        9.61910153       0.00131279       3.13110000        2      -0.01362271      -0.01028620       0.00000000      -2.08014830
Cs       6.39000000      -0.05836067       6.20423156        0       0.00000000       0.00617539       0.00810581      -3.50783055
Pb       9.47392507       3.19500000       9.39330000        1      -0.01072133      -0.00000000       0.00000000      -4.15339767
I        9.71089925       3.19500000       6.29257238        2       0.01881821      -0.00000000       0.00256415      -2.05805926
I        6.39000000       3.19500000       9.39330000        2      -0.00000000      -0.00000000      -0.00000000      -2.11758838
I        9.67633695       0.03242615       9.39330000        2      -0.00276160      -0.00011823       0.00000000      -2.07958468
Cs       6.39000000       6.44836067       0.05796844        0       0.00000000      -0.00617539      -0.00810581      -3.50783055
Pb       9.57646551       9.58500000       3.13110000        1      -0.00002848      -0.00000000       0.00000000      -4.43795513
I        9.62227018       9.58500000      -0.00216196        2      -0.00928465      -0.00000000       0.01256653      -2.05143452
I        6.39000000       9.58500000       3.13110000        2       0.00000000      -0.00000000       0.00000000      -2.09126093
I        9.61910153       6.38868721       3.13110000        2      -0.01362271       0.01028620       0.00000000      -2.08014830
Cs       6.39000000       6.44836067       6.20423156        0      -0.00000000      -0.00617539       0.00810581      -3.50783055
Pb       9.59401308       9.58500000       9.39330000        1       0.00109552      -0.00000000       0.00000000      -4.45245568
I        9.62227018       9.58500000       6.26436196        2      -0.00928465      -0.00000000      -0.01256653      -2.05143452
I        6.39000000       9.58500000       9.39330000        2      -0.00000000      -0.00000000      -0.00000000      -2.08110264
I        9.67633695       6.35757385       9.39330000        2      -0.00276160       0.00011823       0.00000000      -2.07958468
