39
Lattice="12.78 0.0 0.0 0.0 12.78 0.0 0.0 0.0 12.5244" Properties=species:S:1:pos:R:3:spacegroup_kinds:I:1:forces:R:3:energies:R:1 spacegroup="P m -3 m" unit_cell=conventional energy=-110.82729939035278 stress="-0.0006102798557367525 7.191258529610788e-18 8.891300644103925e-19 7.191258529610788e-18 -0.0006102798557367566 4.063246566585148e-18 8.891300644103925e-19 4.063246566585148e-18 -0.0024665340722922198" free_energy=-110.82729939035278 pbc="T T T"
Cs      -0.14525562      -0.14525562      -0.00000000        0      -0.00444004      -0.00444004       0.00000000      -3.51582066
Pb       3.19500000       3.19500000       3.18714192        1      -0.00000000      -0.00000000      -0.01565525      -4.17519567
I        0.03343864       3.19500000       3.04290573        2      -0.00892776       0.00000000      -0.00202276      -2.08442997
I        3.19500000       0.03343864       3.04290573        2       0.00000000      -0.00892776      -0.00202276      -2.08442997
Cs      -0.04218698      -0.04218698       6.26220000        0       0.00629686       0.00629686      -0.00000000      -3.51580666
Pb       3.19500000       3.19500000       9.33725808        1      -0.00000000      -0.00000000       0.01565525      -4.17519567
I        3.19500000       3.19500000       6.26220000        2       0.00000000      -0.00000000      -0.00000000      -2.09422142
I        0.03343864       3.19500000       9.48149427        2      -0.00892776      -0.00000000       0.00202276      -2.08442997
I        3.19500000       0.03343864       9.48149427        2       0.00000000      -0.00892776       0.00202276      -2.08442997
Cs      -0.14525562       6.53525562      -0.00000000        0      -0.00444004       0.00444004       0.00000000      -3.51582066
Pb       3.19500000       9.58500000       3.12213840        1       0.00000000      -0.00000000      -0.00119465      -4.45068989
I        3.19500000       9.58500000      -0.00000000        2       0.00000000      -0.00000000       0.00000000      -2.01898508
I       -0.00064116       9.58500000       3.09884814        2       0.00584358       0.00000000       0.00985183      -2.07777947
I        3.19500000       6.35656136       3.04290573        2       0.00000000       0.00892776      -0.00202276      -2.08442997
Cs      -0.04218698       6.43218698       6.26220000        0       0.00629686      -0.00629686       0.00000000      -3.51580666
Pb       3.19500000       9.58500000       9.40226160        1      -0.00000000      -0.00000000       0.00119465      -4.45068989
I        3.19500000       9.58500000       6.26220000        2       0.00000000      -0.00000000      -0.00000000      -2.05501524
I       -0.00064116       9.58500000       9.42555186        2       0.00584358       0.00000000      -0.00985183      -2.07777947
I        3.19500000       6.35656136       9.48149427        2       0.00000000       0.00892776       0.00202276      -2.08442997
Cs       6.53525562      -0.14525562       0.00000000        0       0.00444004      -0.00444004       0.00000000      -3.51582066
Pb       9.58500000       3.19500000       3.12213840        1      -0.00000000       0.00000000      -0.00119465      -4.45068989
I        9.58500000       3.19500000      -0.00000000        2      -0.00000000       0.00000000       0.00000000      -2.01898508
I        6.35656136       3.19500000       3.04290573        2       0.00892776       0.00000000      -0.00202276      -2.08442997
I        9.58500000      -0.00064116       3.09884814        2       0.00000000       0.00584358       0.00985183      -2.07777947
Cs       6.43218698      -0.04218698       6.26220000        0      -0.00629686       0.00629686      -0.00000000      -3.51580666
Pb       9.58500000       3.19500000       9.40226160        1      -0.00000000       0.00000000       0.00119465      -4.45068989
I        9.58500000       3.19500000       6.26220000        2      -0.00000000      -0.00000000      -0.00000000      -2.05501524
I        6.35656136       3.19500000       9.48149427        2       0.00892776      -0.00000000       0.00202276      -2.08442997
I        9.58500000      -0.00064116       9.42555186        2       0.00000000       0.00584358      -0.00985183      -2.07777947
Cs       6.53525562       6.53525562       0.00000000        0       0.00444004       0.00444004      -0.00000000      -3.51582066
Pb       9.58500000       9.58500000       3.13695401        1       0.00000000       0.00000000       0.00195294      -4.44401361
I        9.58500000       9.58500000       0.00000000        2       0.00000000       0.00000000       0.00000000      -2.06694351
I        6.39064116       9.58500000       3.09884814        2      -0.00584358       0.00000000       0.00985183      -2.07777947
I        9.58500000       6.39064116       3.09884814        2      -0.00000000      -0.00584358       0.00985183      -2.07777947
Cs       6.43218698       6.43218698       6.26220000        0      -0.00629686      -0.00629686       0.00000000      -3.51580666
Pb       9.58500000       9.58500000       9.38744599        1       0.00000000       0.00000000      -0.00195294      -4.44401361
I        9.58500000       9.58500000       6.26220000        2       0.00000000       0.00000000      -0.00000000      -2.05277084
I        6.39064116       9.58500000       9.42555186        2      -0.00584358       0.00000000      -0.00985183      -2.07777947
I        9.58500000       6.39064116       9.42555186        2      -0.00000000      -0.00584358      -0.00985183      -2.07777947
