39
Lattice="12.78 0.0 0.0 0.0 12.78 0.0 0.0 0.0 12.5244" Properties=species:S:1:pos:R:3:spacegroup_kinds:I:1:forces:R:3:energies:R:1 spacegroup="P m -3 m" unit_cell=conventional energy=-110.82656008096208 stress="-0.0006214602014548255 -1.43934145218073e-18 4.2269781725354927e-07 -1.43934145218073e-18 -0.0006195475975220208 -9.178951577199548e-18 4.2269781725354927e-07 -9.178951577199548e-18 -0.0024172386418865217" free_energy=-110.82656008096208 pbc="T T T"
Cs      -0.04309000      -0.05572922       0.01182279        0       0.00771481       0.01039010      -0.00234384      -3.51522581
Pb       3.18960790       3.19500000       3.08040677        1       0.00521607      -0.00000000       0.00379526      -4.17764422
I        3.19839364       3.19500000       0.00267306        2      -0.01482772       0.00000000      -0.01079916      -2.09385430
I        0.03383365       3.19500000       3.23894238        2      -0.01227260       0.00000000       0.00143549      -2.08440163
I        3.21373213       0.03225297       3.21356630        2      -0.00552920      -0.00483238       0.00385082      -2.08248215
Cs      -0.14041312      -0.15173034       6.25169876        0      -0.00434510      -0.00088716       0.00188856      -3.51582988
Pb       3.18593813       3.19500000       9.44594300        1       0.00169870       0.00000000       0.00326049      -4.17216720
I        0.03222306       3.19500000       9.28033289        2      -0.00109866       0.00000000      -0.00005003      -2.07827887
I        3.19450742       0.03217205       9.30514728        2       0.00080871      -0.00190193      -0.00275693      -2.08487201
Cs      -0.04309000       6.44572922       0.01182279        0       0.00771481      -0.01039010      -0.00234384      -3.51522581
Pb       3.20036200       9.58500000       3.13924159        1      -0.00051403      -0.00000000      -0.00074559      -4.45318842
I        3.20294594       9.58500000      -0.00110674        2      -0.00167928      -0.00000000      -0.00064603      -2.05301315
I        0.00026795       9.58500000       3.15633072        2       0.00033884      -0.00000000      -0.00727989      -2.08481269
I        3.21373213       6.35774703       3.21356630        2      -0.00552920       0.00483238       0.00385082      -2.08248215
Cs      -0.14041312       6.54173034       6.25169876        0      -0.00434510       0.00088716       0.00188856      -3.51582988
Pb       3.19461457       9.58500000       9.38331921        1       0.00175986       0.00000000       0.00065152      -4.45192838
I        3.20628806       9.58500000       6.26130944        2      -0.00249049       0.00000000       0.00025059      -2.01855175
I        0.00163705       9.58500000       9.36394057        2      -0.00564117       0.00000000       0.00789761      -2.07909019
I        3.19450742       6.35782795       9.30514728        2       0.00080871       0.00190193      -0.00275693      -2.08487201
Cs       6.43150282      -0.02526741      -0.02012405        0      -0.00790568       0.00122240       0.00707906      -3.51868497
Pb       9.57524833       3.19500000       3.13916097        1       0.00784373      -0.00000000       0.00041279      -4.44982397
I        9.65641411       3.19500000      -0.00141847        2       0.00585008      -0.00000000       0.00511103      -2.05534826
I        6.35588984       3.19500000       3.19426694        2       0.01583862       0.00000000       0.00561061      -2.08298696
I        9.56554770      -0.00149942       3.15938499        2       0.00433856       0.01151649      -0.00792844      -2.07758232
Cs       6.54922413      -0.14106010       6.28167655        0       0.00079812      -0.00845960      -0.00720868      -3.51344597
Pb       9.58149121       3.19500000       9.38402304        1       0.00863350       0.00000000       0.00039987      -4.45002903
I        9.62452442       3.19500000       6.26255741        2      -0.01557187       0.00000000      -0.00633471      -2.02018338
I        6.35704220       3.19500000       9.32797163        2       0.00821197       0.00000000      -0.00512689      -2.09274036
I        9.58801663      -0.00002389       9.36265080        2      -0.00138979       0.00112420       0.00863892      -2.07934761
Cs       6.43150282       6.41526741      -0.02012405        0      -0.00790568      -0.00122240       0.00707906      -3.51868497
Pb       9.57931643       9.58500000       3.12426659        1       0.00138717       0.00000000      -0.00262125      -4.44468364
I        9.57729014       9.58500000       0.00097802        2       0.00157542       0.00000000      -0.01076650      -2.05195079
I        6.38986640       9.58500000       3.16143835        2      -0.00137158       0.00000000      -0.00825552      -2.06790736
I        9.56554770       6.39149942       3.15938499        2       0.00433856      -0.01151649      -0.00792844      -2.07758232
Cs       6.54922413       6.53106010       6.28167655        0       0.00079812       0.00845960      -0.00720868      -3.51344597
Pb       9.58611475       9.58500000       9.39956913        1      -0.00110914      -0.00000000       0.00207013      -4.44154166
I        9.57414879       9.58500000       6.26050962        2       0.00393590      -0.00000000       0.01014900      -2.06935155
I        6.38938528       9.58500000       9.36152464        2       0.00530579       0.00000000       0.00914227      -2.07814089
I        9.58801663       6.39002389       9.36265080        2      -0.00138979      -0.00112420       0.00863892      -2.07934761
