39
Lattice="12.78 0.0 0.0 0.0 12.78 0.0 0.0 0.0 12.5244" Properties=species:S:1:pos:R:3:spacegroup_kinds:I:1:forces:R:3:energies:R:1 spacegroup="P m -3 m" unit_cell=conventional energy=-111.34129671178681 stress="-0.0017486101737075976 -8.885325047259634e-18 1.0925257114561176e-17 -8.885325047259634e-18 0.003504796354799446 -1.644268421593414e-06 1.0925257114561176e-17 -1.644268421593414e-06 0.0010887828669904117" free_energy=-111.34129671178681 pbc="T T T"
Cs      -0.04802513      -0.00323699      -0.08308564        0      -0.00154629       0.00137415       0.00243719      -3.48804545
Pb       3.19500000       3.02466327       3.11170865        1       0.00000000      -0.00574631       0.01114968      -4.10040445
I        0.03860979       3.34452253       3.20944892        2      -0.00417589      -0.00131178       0.00176603      -2.11520218
I        3.19500000       0.00443548       2.36331218        2      -0.00000000      -0.00256032       0.00240570      -2.18235432
Cs      -0.03952754       0.00492650       6.30426765        0       0.00604059      -0.00115876      -0.00136517      -3.50656689
Pb       3.19500000       3.20109756       9.39652631        1       0.00000000      -0.00385175      -0.00327111      -4.37763740
I        3.19500000       2.36650191       6.24778885        2       0.00000000       0.00193708       0.00628995      -2.12817068
I        0.00611848       3.23686206       9.40909825        2      -0.01300157      -0.00382641      -0.00176259      -2.11178296
I        3.19500000       0.00011202      10.13961488        2       0.00000000      -0.00007934      -0.00548227      -2.12776667
Cs      -0.03686905       6.39666355      -0.03646351        0      -0.00867875      -0.00152249      -0.00175898      -3.50404933
Pb       3.19500000       9.76357531       3.11577693        1       0.00000000       0.00373785      -0.00218519      -4.09907792
I        3.19500000       8.77982305       0.04195652        2       0.00000000       0.00153906       0.00683712      -2.14416218
I        0.04129789       9.43902524       3.20875782        2      -0.01160942       0.00091878       0.00151536      -2.11502832
I        3.19500000       4.00070148       0.04707529        2       0.00000000       0.00388287      -0.00264686      -2.14372139
Cs      -0.14213429       6.38495147       6.46992324        0       0.00354055       0.00139949      -0.00616679      -3.45167309
Pb       3.19500000       9.58012428       9.39470114        1      -0.00000000       0.00166343       0.00108301      -4.37803839
I        3.19500000      10.41485044       6.24536842        2       0.00000000       0.00248864       0.00646345      -2.12784373
I        0.00621185       9.54514413       9.40535852        2      -0.01337471       0.00363175      -0.00147109      -2.11159914
I        3.19500000       6.38953813       8.56973793        2       0.00000000       0.00094919      -0.00215215      -2.14464399
Cs       6.43802513      -0.00323699      -0.08308564        0       0.00154629       0.00137415       0.00243719      -3.48804545
Pb       9.58500000       3.20907829       3.15750840        1       0.00000000       0.00792944      -0.00893131      -4.38618280
I        9.58500000       2.40442405       0.03403376        2      -0.00000000      -0.00115721       0.00351742      -2.13194152
I        6.35139021       3.34452253       3.20944892        2       0.00417589      -0.00131178       0.00176603      -2.11520218
I        9.58500000      -0.00230615       3.86595142        2       0.00000000       0.00954205       0.00725464      -2.13349830
Cs       6.42952754       0.00492650       6.30426765        0      -0.00604059      -0.00115876      -0.00136517      -3.50656689
Pb       9.58500000       3.18291609       9.42596479        1       0.00000000       0.00814645       0.00845977      -4.38458951
I        9.58500000       3.95587503       6.29343763        2      -0.00000000       0.00222276      -0.01020538      -2.12773499
I        6.38388152       3.23686206       9.40909825        2       0.01300157      -0.00382641      -0.00176259      -2.11178296
I        9.58500000       0.00016534       8.71379857        2      -0.00000000       0.00120561      -0.00735261      -2.13823951
Cs       6.42686905       6.39666355      -0.03646351        0       0.00867875      -0.00152249      -0.00175898      -3.50404933
Pb       9.58500000       9.57052946       3.15945530        1       0.00000000      -0.00607872      -0.00972792      -4.38836818
I        9.58500000      10.38015780       0.03301832        2      -0.00000000      -0.00383936       0.00480242      -2.13310606
I        6.34870211       9.43902524       3.20875782        2       0.01160942       0.00091878       0.00151536      -2.11502832
I        9.58500000       6.39419010       2.40898387        2      -0.00000000      -0.01056838       0.00922212      -2.11047567
Cs       6.53213429       6.38495147       6.46992324        0      -0.00354055       0.00139949      -0.00616679      -3.45167309
Pb       9.58500000       9.59603984       9.42567789        1       0.00000000      -0.00636642       0.00581472      -4.38498999
I        9.58500000       8.81793014       6.29289418        2       0.00000000      -0.00144017      -0.00912448      -2.12672624
I        6.38378815       9.54514413       9.40535852        2       0.01337471       0.00363175      -0.00147109      -2.11159914
I        9.58500000       6.39129879      10.08859254        2       0.00000000      -0.00256591       0.00139134      -2.13372806
