40
Lattice="11.404885457457713 3.871623298888526e-19 2.6491287164135604e-19 3.4881763357273366e-17 11.404885457462738 1.8551693266735985e-12 6.816313686707039e-17 2.1458579296244505e-12 11.404885457457695" Properties=species:S:1:pos:R:3:spacegroup_kinds:I:1:forces:R:3:energies:R:1 spacegroup="P m -3 m" unit_cell=conventional energy=-141.68838558750764 stress="-6.689596594324597e-05 -9.886131585766633e-19 -1.755322748559793e-18 -9.886131585766633e-19 -6.689596581943051e-05 1.010732017387792e-14 -1.755322748559793e-18 1.010732017387792e-14 -6.689596594364281e-05" free_energy=-141.68838558750764 pbc="T T T"
Cs      -0.00000000       0.00000000      -0.00000000        0      -0.00000000      -0.00000000      -0.00000000      -3.80120403
Pb       2.85122136       2.85122136       2.85122136        1      -0.00000000      -0.00000000      -0.00000000      -4.85161248
Cl       2.85122136       2.85122136       0.00000000        2       0.00000000       0.00000000       0.00000000      -3.01941057
Cl      -0.00000000       2.85122136       2.85122136        2       0.00000000       0.00000000       0.00000000      -3.01941057
Cl       2.85122136       0.00000000       2.85122136        2       0.00000000       0.00000000       0.00000000      -3.01941057
Cs       0.00000000       0.00000000       5.70244273        0      -0.00000000      -0.00000000       0.00000000      -3.80120403
Pb       2.85122136       2.85122136       8.55366409        1      -0.00000000      -0.00000000       0.00000000      -4.85161248
Cl       2.85122136       2.85122136       5.70244273        2       0.00000000       0.00000000      -0.00000000      -3.01941057
Cl      -0.00000000       2.85122136       8.55366409        2       0.00000000       0.00000000      -0.00000000      -3.01941057
Cl       2.85122136       0.00000000       8.55366409        2       0.00000000       0.00000000      -0.00000000      -3.01941057
Cs      -0.00000000       5.70244273       0.00000000        0      -0.00000000       0.00000000       0.00000000      -3.80120403
Pb       2.85122136       8.55366409       2.85122136        1      -0.00000000       0.00000000      -0.00000000      -4.85161248
Cl       2.85122136       8.55366409       0.00000000        2       0.00000000      -0.00000000       0.00000000      -3.01941057
Cl      -0.00000000       8.55366409       2.85122136        2       0.00000000      -0.00000000       0.00000000      -3.01941057
Cl       2.85122136       5.70244273       2.85122136        2       0.00000000      -0.00000000       0.00000000      -3.01941057
Cs      -0.00000000       5.70244273       5.70244273        0       0.00000000       0.00000000      -0.00000000      -3.80120403
Pb       2.85122136       8.55366409       8.55366409        1      -0.00000000       0.00000000       0.00000000      -4.85161248
Cl       2.85122136       8.55366409       5.70244273        2       0.00000000      -0.00000000      -0.00000000      -3.01941057
Cl      -0.00000000       8.55366409       8.55366409        2       0.00000000      -0.00000000      -0.00000000      -3.01941057
Cl       2.85122136       5.70244273       8.55366409        2       0.00000000      -0.00000000      -0.00000000      -3.01941057
Cs       5.70244273      -0.00000000      -0.00000000        0       0.00000000      -0.00000000      -0.00000000      -3.80120403
Pb       8.55366409       2.85122136       2.85122136        1       0.00000000      -0.00000000      -0.00000000      -4.85161248
Cl       8.55366409       2.85122136       0.00000000        2      -0.00000000       0.00000000       0.00000000      -3.01941057
Cl       5.70244273       2.85122136       2.85122136        2      -0.00000000       0.00000000       0.00000000      -3.01941057
Cl       8.55366409       0.00000000       2.85122136        2      -0.00000000       0.00000000       0.00000000      -3.01941057
Cs       5.70244273       0.00000000       5.70244273        0       0.00000000      -0.00000000       0.00000000      -3.80120403
Pb       8.55366409       2.85122136       8.55366409        1       0.00000000      -0.00000000       0.00000000      -4.85161248
Cl       8.55366409       2.85122136       5.70244273        2      -0.00000000       0.00000000      -0.00000000      -3.01941057
Cl       5.70244273       2.85122136       8.55366409        2      -0.00000000       0.00000000      -0.00000000      -3.01941057
Cl       8.55366409       0.00000000       8.55366409        2      -0.00000000       0.00000000      -0.00000000      -3.01941057
Cs       5.70244273       5.70244273       0.00000000        0       0.00000000       0.00000000      -0.00000000      -3.80120403
Pb       8.55366409       8.55366409       2.85122136        1       0.00000000       0.00000000      -0.00000000      -4.85161248
Cl       8.55366409       8.55366409       0.00000000        2      -0.00000000      -0.00000000       0.00000000      -3.01941057
Cl       5.70244273       8.55366409       2.85122136        2      -0.00000000      -0.00000000       0.00000000      -3.01941057
Cl       8.55366409       5.70244273       2.85122136        2      -0.00000000      -0.00000000       0.00000000      -3.01941057
Cs       5.70244273       5.70244273       5.70244273        0      -0.00000000       0.00000000      -0.00000000      -3.80120403
Pb       8.55366409       8.55366409       8.55366409        1       0.00000000       0.00000000       0.00000000      -4.85161248
Cl       8.55366409       8.55366409       5.70244273        2      -0.00000000      -0.00000000      -0.00000000      -3.01941057
Cl       5.70244273       8.55366409       8.55366409        2      -0.00000000      -0.00000000      -0.00000000      -3.01941057
Cl       8.55366409       5.70244273       8.55366409        2      -0.00000000      -0.00000000      -0.00000000      -3.01941057
