40
Lattice="11.978464890500272 1.8907460835138808e-18 7.773986210509772e-19 6.591717431076887e-17 11.978464890498639 -1.270193805788661e-12 1.0065053216310442e-16 -3.5517173790862604e-13 11.978464890500462" Properties=species:S:1:pos:R:3:spacegroup_kinds:I:1:forces:R:3:energies:R:1 spacegroup="P m -3 m" unit_cell=conventional energy=-128.27899158687964 stress="-0.00044258276138897087 -2.9518134876225998e-18 -3.060901699839989e-18 -2.9518134876225998e-18 -0.0004425827614203769 -3.0054312285581482e-15 -3.060901699839989e-18 -3.0054312285581482e-15 -0.00044258276138523807" free_energy=-128.27899158687964 pbc="T T T"
Cs       0.00000000       0.00000000       0.00000000        0       0.00000000       0.00000000       0.00000000      -3.78715115
Pb       2.99461622       2.99461622       2.99461622        1      -0.00000000       0.00000000       0.00000000      -4.80585202
Br       2.99461622       2.99461622      -0.00000000        2       0.00000000       0.00000000       0.00000000      -2.48062359
Br      -0.00000000       2.99461622       2.99461622        2       0.00000000       0.00000000      -0.00000000      -2.48062359
Br       2.99461622      -0.00000000       2.99461622        2       0.00000000       0.00000000      -0.00000000      -2.48062359
Cs       0.00000000      -0.00000000       5.98923245        0       0.00000000      -0.00000000      -0.00000000      -3.78715115
Pb       2.99461622       2.99461622       8.98384867        1      -0.00000000       0.00000000      -0.00000000      -4.80585202
Br       2.99461622       2.99461622       5.98923245        2       0.00000000       0.00000000       0.00000000      -2.48062359
Br      -0.00000000       2.99461622       8.98384867        2      -0.00000000       0.00000000      -0.00000000      -2.48062359
Br       2.99461622      -0.00000000       8.98384867        2       0.00000000       0.00000000      -0.00000000      -2.48062359
Cs       0.00000000       5.98923245      -0.00000000        0       0.00000000      -0.00000000      -0.00000000      -3.78715115
Pb       2.99461622       8.98384867       2.99461622        1       0.00000000      -0.00000000      -0.00000000      -4.80585202
Br       2.99461622       8.98384867      -0.00000000        2       0.00000000      -0.00000000      -0.00000000      -2.48062359
Br      -0.00000000       8.98384867       2.99461622        2       0.00000000      -0.00000000       0.00000000      -2.48062359
Br       2.99461622       5.98923245       2.99461622        2       0.00000000      -0.00000000       0.00000000      -2.48062359
Cs       0.00000000       5.98923245       5.98923245        0       0.00000000      -0.00000000       0.00000000      -3.78715115
Pb       2.99461622       8.98384867       8.98384867        1       0.00000000      -0.00000000      -0.00000000      -4.80585202
Br       2.99461622       8.98384867       5.98923245        2      -0.00000000      -0.00000000       0.00000000      -2.48062359
Br      -0.00000000       8.98384867       8.98384867        2      -0.00000000      -0.00000000      -0.00000000      -2.48062359
Br       2.99461622       5.98923245       8.98384867        2       0.00000000       0.00000000      -0.00000000      -2.48062359
Cs       5.98923245       0.00000000       0.00000000        0      -0.00000000      -0.00000000      -0.00000000      -3.78715115
Pb       8.98384867       2.99461622       2.99461622        1       0.00000000       0.00000000      -0.00000000      -4.80585202
Br       8.98384867       2.99461622      -0.00000000        2      -0.00000000       0.00000000       0.00000000      -2.48062359
Br       5.98923245       2.99461622       2.99461622        2       0.00000000       0.00000000      -0.00000000      -2.48062359
Br       8.98384867      -0.00000000       2.99461622        2      -0.00000000       0.00000000      -0.00000000      -2.48062359
Cs       5.98923245      -0.00000000       5.98923245        0      -0.00000000       0.00000000       0.00000000      -3.78715115
Pb       8.98384867       2.99461622       8.98384867        1       0.00000000       0.00000000      -0.00000000      -4.80585202
Br       8.98384867       2.99461622       5.98923245        2      -0.00000000       0.00000000       0.00000000      -2.48062359
Br       5.98923245       2.99461622       8.98384867        2       0.00000000       0.00000000      -0.00000000      -2.48062359
Br       8.98384867      -0.00000000       8.98384867        2      -0.00000000      -0.00000000       0.00000000      -2.48062359
Cs       5.98923245       5.98923245      -0.00000000        0      -0.00000000      -0.00000000      -0.00000000      -3.78715115
Pb       8.98384867       8.98384867       2.99461622        1      -0.00000000      -0.00000000       0.00000000      -4.80585202
Br       8.98384867       8.98384867      -0.00000000        2      -0.00000000      -0.00000000      -0.00000000      -2.48062359
Br       5.98923245       8.98384867       2.99461622        2       0.00000000      -0.00000000      -0.00000000      -2.48062359
Br       8.98384867       5.98923245       2.99461622        2      -0.00000000      -0.00000000       0.00000000      -2.48062359
Cs       5.98923245       5.98923245       5.98923245        0      -0.00000000      -0.00000000       0.00000000      -3.78715115
Pb       8.98384867       8.98384867       8.98384867        1      -0.00000000      -0.00000000      -0.00000000      -4.80585202
Br       8.98384867       8.98384867       5.98923245        2       0.00000000      -0.00000000       0.00000000      -2.48062359
Br       5.98923245       8.98384867       8.98384867        2       0.00000000      -0.00000000       0.00000000      -2.48062359
Br       8.98384867       5.98923245       8.98384867        2      -0.00000000       0.00000000      -0.00000000      -2.48062359
