
  ___ ___ ___ _ _ _  
 |   |   |_  | | | | 
 | | | | | . | | | | 
 |__ |  _|___|_____|  25.7.0
 |___|_|             

User:   buyer@DESKTOP-3EQA59H
Date:   Tue Jul  7 00:02:21 2026
Arch:   x86_64
Pid:    13541
CWD:    /mnt/c/Users/Buyer/dft-si
Python: 3.11.15
gpaw:   /home/buyer/miniconda3/envs/dft/lib/python3.11/site-packages/gpaw
_gpaw:  /home/buyer/miniconda3/envs/dft/lib/python3.11/site-packages/
        _gpaw.cpython-311-x86_64-linux-gnu.so
ase:    /home/buyer/miniconda3/envs/dft/lib/python3.11/site-packages/ase (version 3.29.0)
numpy:  /home/buyer/miniconda3/envs/dft/lib/python3.11/site-packages/numpy (version 2.4.6)
scipy:  /home/buyer/miniconda3/envs/dft/lib/python3.11/site-packages/scipy (version 1.17.1)
libxc:  7.0.0
units:  Angstrom and eV
cores: 1
OpenMP: True
OMP_NUM_THREADS: 1

Input parameters:
  kpts: [6 6 6]
  mode: {ecut: 400.0,
         name: pw}
  xc: PBE

System changes: positions, numbers, cell, pbc, initial_charges, initial_magmoms 

Initialize ...

species:
  Cs:
    name: Caesium
    id: fa822afd343f47335d508b9ee4f394c3
    Z: 55.0
    valence: 9
    core: 46
    charge: 0.0
    file: /home/buyer/miniconda3/envs/dft/lib/python3.11/site-packages/gpaw_data/setups/Cs.PBE.gz
    compensation charges: {type: gauss,
                           rc: 0.33,
                           lmax: 2}
    cutoffs: {filter: 2.06,
              core: 2.51}
    projectors:
      #              energy  rcut
      - 5s(2.00)   -26.706   1.164
      - 6s(1.00)    -2.085   1.164
      - 5p(6.00)   -13.523   1.058
      -  p          13.688   1.058
      -  d           0.000   1.058
  
    # Using partial waves for Cs as LCAO basis

  Pb:
    name: Lead
    id: 66e73b13d76dc837202bcdb13fee58e6
    Z: 82.0
    valence: 14
    core: 68
    charge: 0.0
    file: /home/buyer/miniconda3/envs/dft/lib/python3.11/site-packages/gpaw_data/setups/Pb.PBE.gz
    compensation charges: {type: gauss,
                           rc: 0.38,
                           lmax: 2}
    cutoffs: {filter: 2.36,
              core: 2.43}
    projectors:
      #              energy  rcut
      - 6s(2.00)   -11.969   1.259
      - 6p(2.00)    -3.506   1.275
      - 5d(10.00)   -21.211   1.217
      -  s          15.243   1.259
      -  p          23.705   1.275
      -  d           6.001   1.217
  
    # Using partial waves for Pb as LCAO basis

  I:
    name: Iodine
    id: 91405a398e4dfe788ff04f57531604ec
    Z: 53.0
    valence: 7
    core: 46
    charge: 0.0
    file: /home/buyer/miniconda3/envs/dft/lib/python3.11/site-packages/gpaw_data/setups/I.PBE.gz
    compensation charges: {type: gauss,
                           rc: 0.37,
                           lmax: 2}
    cutoffs: {filter: 2.06,
              core: 2.90}
    projectors:
      #              energy  rcut
      - 5s(2.00)   -17.382   1.164
      - 5p(5.00)    -7.088   1.164
      -  s           9.829   1.164
      -  p          20.123   1.164
      -  d           0.000   1.164
  
    # Using partial waves for I as LCAO basis

Reference energy: -1359696.926849  # eV

Spin-paired calculation

Convergence criteria:
 Maximum [total energy] change in last 3 cyles: 0.0005 eV / valence electron
 Maximum integral of absolute [dens]ity change: 0.0001 electrons / valence electron
 Maximum integral of absolute [eigenst]ate change: 4e-08 eV^2 / valence electron
 Maximum number of scf [iter]ations: 333
 (Square brackets indicate name in SCF output, whereas a 'c' in
 the SCF output indicates the quantity has converged.)

Symmetries present (total): 48

  ( 1  0  0)  ( 1  0  0)  ( 1  0  0)  ( 1  0  0)  ( 1  0  0)  ( 1  0  0)
  ( 0  1  0)  ( 0  1  0)  ( 0  0  1)  ( 0  0  1)  ( 0  0 -1)  ( 0  0 -1)
  ( 0  0  1)  ( 0  0 -1)  ( 0  1  0)  ( 0 -1  0)  ( 0  1  0)  ( 0 -1  0)

  ( 1  0  0)  ( 1  0  0)  ( 0  1  0)  ( 0  1  0)  ( 0  1  0)  ( 0  1  0)
  ( 0 -1  0)  ( 0 -1  0)  ( 1  0  0)  ( 1  0  0)  ( 0  0  1)  ( 0  0  1)
  ( 0  0  1)  ( 0  0 -1)  ( 0  0  1)  ( 0  0 -1)  ( 1  0  0)  (-1  0  0)

  ( 0  1  0)  ( 0  1  0)  ( 0  1  0)  ( 0  1  0)  ( 0  0  1)  ( 0  0  1)
  ( 0  0 -1)  ( 0  0 -1)  (-1  0  0)  (-1  0  0)  ( 1  0  0)  ( 1  0  0)
  ( 1  0  0)  (-1  0  0)  ( 0  0  1)  ( 0  0 -1)  ( 0  1  0)  ( 0 -1  0)

  ( 0  0  1)  ( 0  0  1)  ( 0  0  1)  ( 0  0  1)  ( 0  0  1)  ( 0  0  1)
  ( 0  1  0)  ( 0  1  0)  ( 0 -1  0)  ( 0 -1  0)  (-1  0  0)  (-1  0  0)
  ( 1  0  0)  (-1  0  0)  ( 1  0  0)  (-1  0  0)  ( 0  1  0)  ( 0 -1  0)

  ( 0  0 -1)  ( 0  0 -1)  ( 0  0 -1)  ( 0  0 -1)  ( 0  0 -1)  ( 0  0 -1)
  ( 1  0  0)  ( 1  0  0)  ( 0  1  0)  ( 0  1  0)  ( 0 -1  0)  ( 0 -1  0)
  ( 0  1  0)  ( 0 -1  0)  ( 1  0  0)  (-1  0  0)  ( 1  0  0)  (-1  0  0)

  ( 0  0 -1)  ( 0  0 -1)  ( 0 -1  0)  ( 0 -1  0)  ( 0 -1  0)  ( 0 -1  0)
  (-1  0  0)  (-1  0  0)  ( 1  0  0)  ( 1  0  0)  ( 0  0  1)  ( 0  0  1)
  ( 0  1  0)  ( 0 -1  0)  ( 0  0  1)  ( 0  0 -1)  ( 1  0  0)  (-1  0  0)

  ( 0 -1  0)  ( 0 -1  0)  ( 0 -1  0)  ( 0 -1  0)  (-1  0  0)  (-1  0  0)
  ( 0  0 -1)  ( 0  0 -1)  (-1  0  0)  (-1  0  0)  ( 0  1  0)  ( 0  1  0)
  ( 1  0  0)  (-1  0  0)  ( 0  0  1)  ( 0  0 -1)  ( 0  0  1)  ( 0  0 -1)

  (-1  0  0)  (-1  0  0)  (-1  0  0)  (-1  0  0)  (-1  0  0)  (-1  0  0)
  ( 0  0  1)  ( 0  0  1)  ( 0  0 -1)  ( 0  0 -1)  ( 0 -1  0)  ( 0 -1  0)
  ( 0  1  0)  ( 0 -1  0)  ( 0  1  0)  ( 0 -1  0)  ( 0  0  1)  ( 0  0 -1)

216 k-points: 6 x 6 x 6 Monkhorst-Pack grid
10 k-points in the irreducible part of the Brillouin zone
       k-points in crystal coordinates                weights
   0:     0.08333333    0.08333333    0.08333333          8/216
   1:     0.25000000    0.08333333    0.08333333         24/216
   2:     0.25000000    0.25000000    0.08333333         24/216
   3:     0.25000000    0.25000000    0.25000000          8/216
   4:     0.41666667    0.08333333    0.08333333         24/216
   5:     0.41666667    0.25000000    0.08333333         48/216
   6:     0.41666667    0.25000000    0.25000000         24/216
   7:     0.41666667    0.41666667    0.08333333         24/216
   8:     0.41666667    0.41666667    0.25000000         24/216
   9:     0.41666667    0.41666667    0.41666667          8/216

Wave functions: Plane wave expansion
  Cutoff energy: 400.000 eV
  Number of coefficients (min, max): 4508, 4545
  Pulay-stress correction: 0.000000 eV/Ang^3 (de/decut=0.000000)
  Using FFTW library
  ScaLapack parameters: grid=1x1, blocksize=None
  Wavefunction extrapolation:
    Improved wavefunction reuse through dual PAW basis 

Occupation numbers: Fermi-Dirac:
  width: 0.1000  # eV
 

Eigensolver
   Davidson(niter=2) 

Densities:
  Coarse grid: 30*30*30 grid
  Fine grid: 60*60*60 grid
  Total Charge: 0.000000 

Density mixing:
  Method: separate
  Backend: pulay
  Linear mixing parameter: 0.05
  old densities: 5
  Damping of long wavelength oscillations: 50 

Hamiltonian:
  XC and Coulomb potentials evaluated on a 60*60*60 grid
  Using the PBE Exchange-Correlation functional
  External potential:
    NoExternalPotential
 

XC parameters: PBE with 2 nearest neighbor stencil

Memory estimate:
  Process memory now: 195.93 MiB
  Calculator: 49.22 MiB
    Density: 14.61 MiB
      Arrays: 5.36 MiB
      Localized functions: 7.20 MiB
      Mixer: 2.06 MiB
    Hamiltonian: 3.70 MiB
      Arrays: 3.50 MiB
      XC: 0.00 MiB
      Poisson: 0.00 MiB
      vbar: 0.20 MiB
    Wavefunctions: 30.91 MiB
      Arrays psit_nG: 18.03 MiB
      Eigensolver: 2.25 MiB
      Projections: 0.28 MiB
      Projectors: 8.63 MiB
      PW-descriptor: 1.72 MiB

Total number of cores used: 1

Number of atoms: 5
Number of atomic orbitals: 26
Number of bands in calculation: 26
Number of valence electrons: 44
Bands to converge: occupied

... initialized

Initializing position-dependent things.

Density initialized from atomic densities
Creating initial wave functions:
  26 bands from LCAO basis set

     .--------------.  
    /|              |  
   / |              |  
  /  |              |  
 *   |              |  
 |   |              |  
 | I |    Pb        |  
 |   |              |  
 |   .--I-----------.  
 |  /              /   
 | /      I       /    
 |/              /     
 Cs-------------*      

Atomic positions and initial magnetic moments

Positions:
   0 Cs     0.000000    0.000000    0.000000    ( 0.0000,  0.0000,  0.0000)
   1 Pb     3.145000    3.145000    3.145000    ( 0.0000,  0.0000,  0.0000)
   2 I      3.145000    3.145000    0.000000    ( 0.0000,  0.0000,  0.0000)
   3 I      3.145000    0.000000    3.145000    ( 0.0000,  0.0000,  0.0000)
   4 I      0.000000    3.145000    3.145000    ( 0.0000,  0.0000,  0.0000)

Unit cell:
           periodic     x           y           z      points  spacing
  1. axis:    yes    6.290000    0.000000    0.000000    30     0.2097
  2. axis:    yes    0.000000    6.290000    0.000000    30     0.2097
  3. axis:    yes    0.000000    0.000000    6.290000    30     0.2097

  Lengths:   6.290000   6.290000   6.290000
  Angles:   90.000000  90.000000  90.000000

Effective grid spacing dv^(1/3) = 0.2097

     iter     time        total  log10-change:
                         energy   eigst   dens
iter:   1 00:02:23   -14.492280
iter:   2 00:02:24   -14.432721   -1.49  -1.31
iter:   3 00:02:25   -14.179485   -2.05  -1.36
iter:   4 00:02:26   -14.134751   -1.94  -1.54
iter:   5 00:02:27   -14.120303   -2.78  -1.76
iter:   6 00:02:28   -14.115991c  -4.06  -2.14
iter:   7 00:02:29   -14.111793c  -3.58  -2.32
iter:   8 00:02:30   -14.111949c  -4.37  -2.52
iter:   9 00:02:31   -14.111917c  -5.49  -3.20
iter:  10 00:02:32   -14.111914c  -5.79  -3.27
iter:  11 00:02:33   -14.111924c  -6.71  -3.20
iter:  12 00:02:34   -14.111939c  -5.55  -3.30
iter:  13 00:02:35   -14.111936c  -7.10  -4.12c
iter:  14 00:02:36   -14.111937c  -7.51c -4.27c

Converged after 14 iterations.

Dipole moment: (0.000000, 0.000000, 0.000000) |e|*Ang

Energy contributions relative to reference atoms: (reference = -1359696.926849)

Kinetic:        +32.495883
Potential:      -32.397841
External:        +0.000000
XC:             -14.143454
Entropy (-ST):   -0.000011
Local:           -0.066519
SIC:             +0.000000
--------------------------
Free energy:    -14.111942
Extrapolated:   -14.111937

Showing only first 2 kpts
 Kpt  Band  Eigenvalues  Occupancy
  0    20      1.17649    2.00000
  0    21      1.17649    2.00000
  0    22      5.68429    0.00000
  0    23      6.99969    0.00000

  1    20      1.14247    2.00000
  1    21      1.18836    2.00000
  1    22      6.14082    0.00000
  1    23      6.30192    0.00000


Fermi level: 3.09878

Gap: 2.113 eV
Transition (v -> c):
  (s=0, k=9, n=21, [0.42, 0.42, 0.42]) -> (s=0, k=9, n=22, [0.42, 0.42, 0.42])
No difference between direct/indirect transitions
Timing:                              incl.     excl.
-----------------------------------------------------------
Hamiltonian:                         0.167     0.001   0.0% |
 Atomic:                             0.119     0.001   0.0% |
  XC Correction:                     0.119     0.119   0.0% |
 Calculate atomic Hamiltonians:      0.008     0.008   0.0% |
 Communicate:                        0.000     0.000   0.0% |
 Initialize Hamiltonian:             0.000     0.000   0.0% |
 Poisson:                            0.001     0.001   0.0% |
 XC 3D grid:                         0.039     0.039   0.0% |
LCAO initialization:                 0.577     0.085   0.0% |
 LCAO eigensolver:                   0.059     0.000   0.0% |
  Calculate projections:             0.000     0.000   0.0% |
  DenseAtomicCorrection:             0.001     0.001   0.0% |
  Distribute overlap matrix:         0.000     0.000   0.0% |
  Orbital Layouts:                   0.010     0.010   0.0% |
  Potential matrix:                  0.046     0.046   0.0% |
  Sum over cells:                    0.002     0.002   0.0% |
 LCAO to grid:                       0.367     0.367   0.1% |
 Set positions (LCAO WFS):           0.066     0.011   0.0% |
  Basic WFS set positions:           0.003     0.003   0.0% |
  Basis functions set positions:     0.000     0.000   0.0% |
  P tci:                             0.027     0.027   0.0% |
  ST tci:                            0.014     0.014   0.0% |
  mktci:                             0.012     0.012   0.0% |
PWDescriptor:                        0.113     0.113   0.0% |
SCF-cycle:                          13.423     0.021   0.0% |
 Davidson:                           9.693     1.854   0.4% |
  Apply H:                           1.512     1.452   0.3% |
   HMM T:                            0.060     0.060   0.0% |
  Subspace diag:                     1.932     0.009   0.0% |
   calc_h_matrix:                    1.676     0.152   0.0% |
    Apply H:                         1.524     1.461   0.3% |
     HMM T:                          0.064     0.064   0.0% |
   diagonalize:                      0.040     0.040   0.0% |
   rotate_psi:                       0.206     0.206   0.0% |
  calc. matrices:                    3.879     0.850   0.2% |
   Apply H:                          3.029     2.905   0.6% |
    HMM T:                           0.124     0.124   0.0% |
  diagonalize:                       0.154     0.154   0.0% |
  rotate_psi:                        0.363     0.363   0.1% |
 Density:                            1.535     0.000   0.0% |
  Atomic density matrices:           0.022     0.022   0.0% |
  Mix:                               0.155     0.155   0.0% |
  Multipole moments:                 0.001     0.001   0.0% |
  Pseudo density:                    1.356     0.693   0.1% |
   Symmetrize density:               0.663     0.663   0.1% |
 Hamiltonian:                        2.126     0.007   0.0% |
  Atomic:                            1.578     0.007   0.0% |
   XC Correction:                    1.571     1.571   0.3% |
  Calculate atomic Hamiltonians:     0.113     0.113   0.0% |
  Communicate:                       0.000     0.000   0.0% |
  Poisson:                           0.007     0.007   0.0% |
  XC 3D grid:                        0.421     0.421   0.1% |
 Orthonormalize:                     0.047     0.001   0.0% |
  calc_s_matrix:                     0.010     0.010   0.0% |
  inverse-cholesky:                  0.004     0.004   0.0% |
  projections:                       0.024     0.024   0.0% |
  rotate_psi_s:                      0.007     0.007   0.0% |
Set symmetry:                        0.018     0.018   0.0% |
Other:                             475.623   475.623  97.1% |--------------------------------------|
-----------------------------------------------------------
Total:                                       489.920 100.0%

Memory usage: 274.29 MiB
Date: Tue Jul  7 00:10:31 2026
