39
Lattice="12.78 0.0 0.0 0.0 12.78 0.0 0.0 0.0 12.78" Properties=species:S:1:pos:R:3:spacegroup_kinds:I:1:forces:R:3:energies:R:1 spacegroup="P m -3 m" unit_cell=conventional energy=-110.84173293619003 stress="0.0017336927973544464 -1.521844853860097e-09 -4.3798696334830483e-07 -1.521844853860097e-09 0.0002685659014518726 -5.702779506442228e-10 -4.3798696334830483e-07 -5.702779506442228e-10 0.0002756322107646551" free_energy=-110.84173293619003 pbc="T T T"
Cs      -0.00641514      -0.17663935      -0.16997168        0       0.00134491       0.00057518      -0.00018813      -3.48992218
Pb       3.29628402       3.19500439       3.19979871        1       0.00679168       0.00000031       0.00080984      -4.16411890
I        3.08735587       3.19504526       0.04268683        2      -0.00808767       0.00000648       0.00100936      -2.07823917
I        3.10929783       0.03118554       3.20059010        2      -0.00072880       0.00599158       0.00237108      -2.08034356
Cs       0.01048522      -0.17443768       6.57603528        0      -0.00300266      -0.00253901      -0.00024338      -3.48721530
Pb       3.18578595       3.19500210       9.59301959        1       0.00124739       0.00000139       0.00782836      -4.45391347
I        3.12352749       3.19497029       6.37164883        2       0.00732749      -0.00000666      -0.01744060      -2.08307845
I        0.00068488       3.19499908       9.56292498        2      -0.00489120       0.00000084      -0.00167014      -2.05278693
I        3.18254037       0.00092055       9.59155015        2      -0.00046905      -0.00697694      -0.00092659      -2.08177105
Cs      -0.00641216       6.56664523      -0.16997591        0       0.00134451      -0.00057599      -0.00018840      -3.48992185
Pb       3.18572800       9.58500510       3.19717150        1       0.00093056       0.00000007       0.00053408      -4.45403440
I        3.18186408       9.58497039       0.00307225        2       0.00117159      -0.00000660      -0.00446996      -2.08084039
I        0.00025578       9.58499347       3.19229545        2      -0.00303593      -0.00000008       0.00041134      -2.05239853
I        3.10931210       6.35882594       3.20065965        2      -0.00072334      -0.00599484       0.00238790      -2.08034333
Cs       0.01048653       6.56444444       6.57603720        0      -0.00300293       0.00253988      -0.00024416      -3.48721400
Pb       3.21122190       9.58500283       9.58849631        1       0.00069446       0.00000039      -0.00045077      -4.43901861
I        3.18278205       9.58503783       6.39196724        2      -0.00209012       0.00000617       0.00630328      -2.08231274
I       -0.00099859       9.58500494       9.59112563        2       0.00341999      -0.00000115      -0.00065633      -2.11824718
I        3.18254115       6.38908575       9.59148560        2      -0.00047005       0.00697547      -0.00094237      -2.08177158
Cs       6.39797119      -0.04120600      -0.02980340        0      -0.00164671       0.00278818       0.00187685      -3.49873291
Pb       9.48668299       3.19500147       3.20219364        1      -0.00945083       0.00000027      -0.00272641      -4.16510699
I        9.69413976       3.19500123       0.03708005        2       0.00735465       0.00000160       0.00538277      -2.08062300
I        6.39097216       3.19499302       3.17594415        2       0.00096942       0.00000162       0.00205123      -2.12299827
I        9.67008613       0.03105933       3.19265589        2       0.00088048       0.00481940       0.00170755      -2.07988589
Cs       6.37964075      -0.01853302       6.42208443        0       0.00307389      -0.00189541      -0.00064130      -3.49654797
Pb       9.59390510       3.19500040       9.59491585        1      -0.00102796       0.00000075      -0.00513785      -4.45302695
I        9.65111537       3.19499633       6.36501896        2      -0.00590845      -0.00000005      -0.00410231      -2.08012075
I        6.38893932       3.19499961       9.61934574        2       0.00459590       0.00000067       0.00139514      -2.07887170
I        9.59736563      -0.00034186       9.58623436        2       0.00043901       0.00112400       0.00012484      -2.08120820
Cs       6.39796638       6.43120708      -0.02980089        0      -0.00164639      -0.00278820       0.00187618      -3.49873260
Pb       9.59345442       9.58500206       3.19817626        1      -0.00046879      -0.00000005      -0.00094032      -4.45373003
I        9.59197924       9.58499658      -0.00016859        2       0.00008409      -0.00000030       0.00296696      -2.08280488
I        6.38898750       9.58501137       3.19520074        2       0.00309995       0.00000048       0.00163179      -2.07820214
I        9.67007705       6.35894519       3.19266262        2       0.00087537      -0.00482190       0.00170919      -2.07988584
Cs       6.37963941       6.40853420       6.42208086        0       0.00307417       0.00189628      -0.00064113      -3.49654674
Pb       9.56749956       9.58500067       9.58472091        1      -0.00034897       0.00000007      -0.00064856      -4.44077617
I        9.60269088       9.58500536       6.39086863        2       0.00082391       0.00000015       0.00051123      -2.07887290
I        6.38971605       9.58500158       9.58296745        2      -0.00298356      -0.00000011      -0.00075380      -2.07635884
I        9.59736589       6.39034318       9.58622682        2       0.00044001      -0.00112392       0.00012352      -2.08120855
