
  ___ ___ ___ _ _ _  
 |   |   |_  | | | | 
 | | | | | . | | | | 
 |__ |  _|___|_____|  25.7.0
 |___|_|             

User:   buyer@DESKTOP-3EQA59H
Date:   Sun Jul 12 01:47:45 2026
Arch:   x86_64
Pid:    1565
CWD:    /mnt/c/Users/Buyer/dft-si
Python: 3.11.15
gpaw:   /home/buyer/miniconda3/envs/dft/lib/python3.11/site-packages/gpaw
_gpaw:  /home/buyer/miniconda3/envs/dft/lib/python3.11/site-packages/
        _gpaw.cpython-311-x86_64-linux-gnu.so
ase:    /home/buyer/miniconda3/envs/dft/lib/python3.11/site-packages/ase (version 3.29.0)
numpy:  /home/buyer/miniconda3/envs/dft/lib/python3.11/site-packages/numpy (version 2.4.6)
scipy:  /home/buyer/miniconda3/envs/dft/lib/python3.11/site-packages/scipy (version 1.17.1)
libxc:  7.0.0
units:  Angstrom and eV
cores: 1
OpenMP: True
OMP_NUM_THREADS: 1

Input parameters:
  kpts: [6 6 6]
  mode: {ecut: 600.0,
         name: pw}
  xc: PBE

System changes: positions, numbers, cell, pbc, initial_charges, initial_magmoms 

Initialize ...

species:
  Cs:
    name: Caesium
    id: fa822afd343f47335d508b9ee4f394c3
    Z: 55.0
    valence: 9
    core: 46
    charge: 0.0
    file: /home/buyer/miniconda3/envs/dft/lib/python3.11/site-packages/gpaw_data/setups/Cs.PBE.gz
    compensation charges: {type: gauss,
                           rc: 0.33,
                           lmax: 2}
    cutoffs: {filter: 2.06,
              core: 2.51}
    projectors:
      #              energy  rcut
      - 5s(2.00)   -26.706   1.164
      - 6s(1.00)    -2.085   1.164
      - 5p(6.00)   -13.523   1.058
      -  p          13.688   1.058
      -  d           0.000   1.058
  
    # Using partial waves for Cs as LCAO basis

  Pb:
    name: Lead
    id: 66e73b13d76dc837202bcdb13fee58e6
    Z: 82.0
    valence: 14
    core: 68
    charge: 0.0
    file: /home/buyer/miniconda3/envs/dft/lib/python3.11/site-packages/gpaw_data/setups/Pb.PBE.gz
    compensation charges: {type: gauss,
                           rc: 0.38,
                           lmax: 2}
    cutoffs: {filter: 2.36,
              core: 2.43}
    projectors:
      #              energy  rcut
      - 6s(2.00)   -11.969   1.259
      - 6p(2.00)    -3.506   1.275
      - 5d(10.00)   -21.211   1.217
      -  s          15.243   1.259
      -  p          23.705   1.275
      -  d           6.001   1.217
  
    # Using partial waves for Pb as LCAO basis

  I:
    name: Iodine
    id: 91405a398e4dfe788ff04f57531604ec
    Z: 53.0
    valence: 7
    core: 46
    charge: 0.0
    file: /home/buyer/miniconda3/envs/dft/lib/python3.11/site-packages/gpaw_data/setups/I.PBE.gz
    compensation charges: {type: gauss,
                           rc: 0.37,
                           lmax: 2}
    cutoffs: {filter: 2.06,
              core: 2.90}
    projectors:
      #              energy  rcut
      - 5s(2.00)   -17.382   1.164
      - 5p(5.00)    -7.088   1.164
      -  s           9.829   1.164
      -  p          20.123   1.164
      -  d           0.000   1.164
  
    # Using partial waves for I as LCAO basis

Reference energy: -1359696.926849  # eV

Spin-paired calculation

Convergence criteria:
 Maximum [total energy] change in last 3 cyles: 0.0005 eV / valence electron
 Maximum integral of absolute [dens]ity change: 0.0001 electrons / valence electron
 Maximum integral of absolute [eigenst]ate change: 4e-08 eV^2 / valence electron
 Maximum number of scf [iter]ations: 333
 (Square brackets indicate name in SCF output, whereas a 'c' in
 the SCF output indicates the quantity has converged.)

Symmetries present (total): 48

  ( 1  0  0)  ( 1  0  0)  ( 1  0  0)  ( 1  0  0)  ( 1  0  0)  ( 1  0  0)
  ( 0  1  0)  ( 0  1  0)  ( 0  0  1)  ( 0  0  1)  ( 0  0 -1)  ( 0  0 -1)
  ( 0  0  1)  ( 0  0 -1)  ( 0  1  0)  ( 0 -1  0)  ( 0  1  0)  ( 0 -1  0)

  ( 1  0  0)  ( 1  0  0)  ( 0  1  0)  ( 0  1  0)  ( 0  1  0)  ( 0  1  0)
  ( 0 -1  0)  ( 0 -1  0)  ( 1  0  0)  ( 1  0  0)  ( 0  0  1)  ( 0  0  1)
  ( 0  0  1)  ( 0  0 -1)  ( 0  0  1)  ( 0  0 -1)  ( 1  0  0)  (-1  0  0)

  ( 0  1  0)  ( 0  1  0)  ( 0  1  0)  ( 0  1  0)  ( 0  0  1)  ( 0  0  1)
  ( 0  0 -1)  ( 0  0 -1)  (-1  0  0)  (-1  0  0)  ( 1  0  0)  ( 1  0  0)
  ( 1  0  0)  (-1  0  0)  ( 0  0  1)  ( 0  0 -1)  ( 0  1  0)  ( 0 -1  0)

  ( 0  0  1)  ( 0  0  1)  ( 0  0  1)  ( 0  0  1)  ( 0  0  1)  ( 0  0  1)
  ( 0  1  0)  ( 0  1  0)  ( 0 -1  0)  ( 0 -1  0)  (-1  0  0)  (-1  0  0)
  ( 1  0  0)  (-1  0  0)  ( 1  0  0)  (-1  0  0)  ( 0  1  0)  ( 0 -1  0)

  ( 0  0 -1)  ( 0  0 -1)  ( 0  0 -1)  ( 0  0 -1)  ( 0  0 -1)  ( 0  0 -1)
  ( 1  0  0)  ( 1  0  0)  ( 0  1  0)  ( 0  1  0)  ( 0 -1  0)  ( 0 -1  0)
  ( 0  1  0)  ( 0 -1  0)  ( 1  0  0)  (-1  0  0)  ( 1  0  0)  (-1  0  0)

  ( 0  0 -1)  ( 0  0 -1)  ( 0 -1  0)  ( 0 -1  0)  ( 0 -1  0)  ( 0 -1  0)
  (-1  0  0)  (-1  0  0)  ( 1  0  0)  ( 1  0  0)  ( 0  0  1)  ( 0  0  1)
  ( 0  1  0)  ( 0 -1  0)  ( 0  0  1)  ( 0  0 -1)  ( 1  0  0)  (-1  0  0)

  ( 0 -1  0)  ( 0 -1  0)  ( 0 -1  0)  ( 0 -1  0)  (-1  0  0)  (-1  0  0)
  ( 0  0 -1)  ( 0  0 -1)  (-1  0  0)  (-1  0  0)  ( 0  1  0)  ( 0  1  0)
  ( 1  0  0)  (-1  0  0)  ( 0  0  1)  ( 0  0 -1)  ( 0  0  1)  ( 0  0 -1)

  (-1  0  0)  (-1  0  0)  (-1  0  0)  (-1  0  0)  (-1  0  0)  (-1  0  0)
  ( 0  0  1)  ( 0  0  1)  ( 0  0 -1)  ( 0  0 -1)  ( 0 -1  0)  ( 0 -1  0)
  ( 0  1  0)  ( 0 -1  0)  ( 0  1  0)  ( 0 -1  0)  ( 0  0  1)  ( 0  0 -1)

216 k-points: 6 x 6 x 6 Monkhorst-Pack grid
10 k-points in the irreducible part of the Brillouin zone
       k-points in crystal coordinates                weights
   0:     0.08333333    0.08333333    0.08333333          8/216
   1:     0.25000000    0.08333333    0.08333333         24/216
   2:     0.25000000    0.25000000    0.08333333         24/216
   3:     0.25000000    0.25000000    0.25000000          8/216
   4:     0.41666667    0.08333333    0.08333333         24/216
   5:     0.41666667    0.25000000    0.08333333         48/216
   6:     0.41666667    0.25000000    0.25000000         24/216
   7:     0.41666667    0.41666667    0.08333333         24/216
   8:     0.41666667    0.41666667    0.25000000         24/216
   9:     0.41666667    0.41666667    0.41666667          8/216

Wave functions: Plane wave expansion
  Cutoff energy: 600.000 eV
  Number of coefficients (min, max): 8289, 8323
  Pulay-stress correction: 0.000000 eV/Ang^3 (de/decut=0.000000)
  Using FFTW library
  ScaLapack parameters: grid=1x1, blocksize=None
  Wavefunction extrapolation:
    Improved wavefunction reuse through dual PAW basis 

Occupation numbers: Fermi-Dirac:
  width: 0.1000  # eV
 

Eigensolver
   Davidson(niter=2) 

Densities:
  Coarse grid: 36*36*36 grid
  Fine grid: 72*72*72 grid
  Total Charge: 0.000000 

Density mixing:
  Method: separate
  Backend: pulay
  Linear mixing parameter: 0.05
  old densities: 5
  Damping of long wavelength oscillations: 50 

Hamiltonian:
  XC and Coulomb potentials evaluated on a 72*72*72 grid
  Using the PBE Exchange-Correlation functional
  External potential:
    NoExternalPotential
 

XC parameters: PBE with 2 nearest neighbor stencil

Memory estimate:
  Process memory now: 170.20 MiB
  Calculator: 88.73 MiB
    Density: 26.10 MiB
      Arrays: 9.25 MiB
      Localized functions: 13.28 MiB
      Mixer: 3.56 MiB
    Hamiltonian: 6.41 MiB
      Arrays: 6.05 MiB
      XC: 0.00 MiB
      Poisson: 0.00 MiB
      vbar: 0.36 MiB
    Wavefunctions: 56.23 MiB
      Arrays psit_nG: 33.02 MiB
      Eigensolver: 4.04 MiB
      Projections: 0.28 MiB
      Projectors: 15.84 MiB
      PW-descriptor: 3.05 MiB

Total number of cores used: 1

Number of atoms: 5
Number of atomic orbitals: 26
Number of bands in calculation: 26
Number of valence electrons: 44
Bands to converge: occupied

... initialized

Initializing position-dependent things.

Density initialized from atomic densities
Creating initial wave functions:
  26 bands from LCAO basis set

     .--------------.  
    /|              |  
   / |              |  
  /  |              |  
 *   |              |  
 |   |              |  
 | I |    Pb        |  
 |   |              |  
 |   .--I-----------.  
 |  /              /   
 | /      I       /    
 |/              /     
 Cs-------------*      

Atomic positions and initial magnetic moments

Positions:
   0 Cs     0.000000    0.000000    0.000000    ( 0.0000,  0.0000,  0.0000)
   1 Pb     3.145000    3.145000    3.145000    ( 0.0000,  0.0000,  0.0000)
   2 I      3.145000    3.145000    0.000000    ( 0.0000,  0.0000,  0.0000)
   3 I      0.000000    3.145000    3.145000    ( 0.0000,  0.0000,  0.0000)
   4 I      3.145000    0.000000    3.145000    ( 0.0000,  0.0000,  0.0000)

Unit cell:
           periodic     x           y           z      points  spacing
  1. axis:    yes    6.290000    0.000000    0.000000    36     0.1747
  2. axis:    yes    0.000000    6.290000    0.000000    36     0.1747
  3. axis:    yes    0.000000    0.000000    6.290000    36     0.1747

  Lengths:   6.290000   6.290000   6.290000
  Angles:   90.000000  90.000000  90.000000

Effective grid spacing dv^(1/3) = 0.1747

     iter     time        total  log10-change:
                         energy   eigst   dens
iter:   1 01:47:49   -14.572116
iter:   2 01:47:51   -14.513774   -1.37  -1.31
iter:   3 01:47:54   -14.259642   -2.04  -1.36
iter:   4 01:47:56   -14.218272   -1.95  -1.54
iter:   5 01:47:58   -14.201551   -2.82  -1.75
iter:   6 01:48:00   -14.199073c  -4.12  -2.18
iter:   7 01:48:02   -14.195713c  -3.66  -2.34
iter:   8 01:48:04   -14.195950c  -4.33  -2.53
iter:   9 01:48:06   -14.195904c  -5.36  -3.16
iter:  10 01:48:08   -14.195898c  -5.79  -3.27
iter:  11 01:48:11   -14.195906c  -6.85  -3.20
iter:  12 01:48:13   -14.195929c  -5.46  -3.26
iter:  13 01:48:15   -14.195924c  -6.90  -3.91
iter:  14 01:48:17   -14.195924c  -7.73c -4.22c

Converged after 14 iterations.

Dipole moment: (0.000000, 0.000000, 0.000000) |e|*Ang

Energy contributions relative to reference atoms: (reference = -1359696.926849)

Kinetic:        +31.140346
Potential:      -31.105014
External:        +0.000000
XC:             -14.097497
Entropy (-ST):   -0.000011
Local:           -0.133754
SIC:             +0.000000
--------------------------
Free energy:    -14.195929
Extrapolated:   -14.195924

Showing only first 2 kpts
 Kpt  Band  Eigenvalues  Occupancy
  0    20      1.17646    2.00000
  0    21      1.17646    2.00000
  0    22      5.68424    0.00000
  0    23      6.94159    0.00000

  1    20      1.14243    2.00000
  1    21      1.18837    2.00000
  1    22      6.14077    0.00000
  1    23      6.30097    0.00000


Fermi level: 3.09900

Gap: 2.110 eV
Transition (v -> c):
  (s=0, k=9, n=21, [0.42, 0.42, 0.42]) -> (s=0, k=9, n=22, [0.42, 0.42, 0.42])
No difference between direct/indirect transitions
Stress tensor:
    -0.004880     0.000000     0.000000
     0.000000    -0.004880     0.000000
     0.000000     0.000000    -0.004880

Forces in eV/Ang:
  0 Cs    0.00000    0.00000    0.00000
  1 Pb    0.00000    0.00000    0.00000
  2 I    -0.00000   -0.00000    0.00000
  3 I     0.00000   -0.00000   -0.00000
  4 I    -0.00000    0.00000   -0.00000

System changes: cell, positions 

Initialize ...

species:
  Cs:
    name: Caesium
    id: fa822afd343f47335d508b9ee4f394c3
    Z: 55.0
    valence: 9
    core: 46
    charge: 0.0
    file: /home/buyer/miniconda3/envs/dft/lib/python3.11/site-packages/gpaw_data/setups/Cs.PBE.gz
    compensation charges: {type: gauss,
                           rc: 0.33,
                           lmax: 2}
    cutoffs: {filter: 2.06,
              core: 2.51}
    projectors:
      #              energy  rcut
      - 5s(2.00)   -26.706   1.164
      - 6s(1.00)    -2.085   1.164
      - 5p(6.00)   -13.523   1.058
      -  p          13.688   1.058
      -  d           0.000   1.058
  
    # Using partial waves for Cs as LCAO basis

  Pb:
    name: Lead
    id: 66e73b13d76dc837202bcdb13fee58e6
    Z: 82.0
    valence: 14
    core: 68
    charge: 0.0
    file: /home/buyer/miniconda3/envs/dft/lib/python3.11/site-packages/gpaw_data/setups/Pb.PBE.gz
    compensation charges: {type: gauss,
                           rc: 0.38,
                           lmax: 2}
    cutoffs: {filter: 2.36,
              core: 2.43}
    projectors:
      #              energy  rcut
      - 6s(2.00)   -11.969   1.259
      - 6p(2.00)    -3.506   1.275
      - 5d(10.00)   -21.211   1.217
      -  s          15.243   1.259
      -  p          23.705   1.275
      -  d           6.001   1.217
  
    # Using partial waves for Pb as LCAO basis

  I:
    name: Iodine
    id: 91405a398e4dfe788ff04f57531604ec
    Z: 53.0
    valence: 7
    core: 46
    charge: 0.0
    file: /home/buyer/miniconda3/envs/dft/lib/python3.11/site-packages/gpaw_data/setups/I.PBE.gz
    compensation charges: {type: gauss,
                           rc: 0.37,
                           lmax: 2}
    cutoffs: {filter: 2.06,
              core: 2.90}
    projectors:
      #              energy  rcut
      - 5s(2.00)   -17.382   1.164
      - 5p(5.00)    -7.088   1.164
      -  s           9.829   1.164
      -  p          20.123   1.164
      -  d           0.000   1.164
  
    # Using partial waves for I as LCAO basis

Reference energy: -1359696.926849  # eV

Spin-paired calculation

Convergence criteria:
 Maximum [total energy] change in last 3 cyles: 0.0005 eV / valence electron
 Maximum integral of absolute [dens]ity change: 0.0001 electrons / valence electron
 Maximum integral of absolute [eigenst]ate change: 4e-08 eV^2 / valence electron
 Maximum number of scf [iter]ations: 333
 (Square brackets indicate name in SCF output, whereas a 'c' in
 the SCF output indicates the quantity has converged.)

Symmetries present (total): 48

  ( 1  0  0)  ( 1  0  0)  ( 1  0  0)  ( 1  0  0)  ( 1  0  0)  ( 1  0  0)
  ( 0  1  0)  ( 0  1  0)  ( 0  0  1)  ( 0  0  1)  ( 0  0 -1)  ( 0  0 -1)
  ( 0  0  1)  ( 0  0 -1)  ( 0  1  0)  ( 0 -1  0)  ( 0  1  0)  ( 0 -1  0)

  ( 1  0  0)  ( 1  0  0)  ( 0  1  0)  ( 0  1  0)  ( 0  1  0)  ( 0  1  0)
  ( 0 -1  0)  ( 0 -1  0)  ( 1  0  0)  ( 1  0  0)  ( 0  0  1)  ( 0  0  1)
  ( 0  0  1)  ( 0  0 -1)  ( 0  0  1)  ( 0  0 -1)  ( 1  0  0)  (-1  0  0)

  ( 0  1  0)  ( 0  1  0)  ( 0  1  0)  ( 0  1  0)  ( 0  0  1)  ( 0  0  1)
  ( 0  0 -1)  ( 0  0 -1)  (-1  0  0)  (-1  0  0)  ( 1  0  0)  ( 1  0  0)
  ( 1  0  0)  (-1  0  0)  ( 0  0  1)  ( 0  0 -1)  ( 0  1  0)  ( 0 -1  0)

  ( 0  0  1)  ( 0  0  1)  ( 0  0  1)  ( 0  0  1)  ( 0  0  1)  ( 0  0  1)
  ( 0  1  0)  ( 0  1  0)  ( 0 -1  0)  ( 0 -1  0)  (-1  0  0)  (-1  0  0)
  ( 1  0  0)  (-1  0  0)  ( 1  0  0)  (-1  0  0)  ( 0  1  0)  ( 0 -1  0)

  ( 0  0 -1)  ( 0  0 -1)  ( 0  0 -1)  ( 0  0 -1)  ( 0  0 -1)  ( 0  0 -1)
  ( 1  0  0)  ( 1  0  0)  ( 0  1  0)  ( 0  1  0)  ( 0 -1  0)  ( 0 -1  0)
  ( 0  1  0)  ( 0 -1  0)  ( 1  0  0)  (-1  0  0)  ( 1  0  0)  (-1  0  0)

  ( 0  0 -1)  ( 0  0 -1)  ( 0 -1  0)  ( 0 -1  0)  ( 0 -1  0)  ( 0 -1  0)
  (-1  0  0)  (-1  0  0)  ( 1  0  0)  ( 1  0  0)  ( 0  0  1)  ( 0  0  1)
  ( 0  1  0)  ( 0 -1  0)  ( 0  0  1)  ( 0  0 -1)  ( 1  0  0)  (-1  0  0)

  ( 0 -1  0)  ( 0 -1  0)  ( 0 -1  0)  ( 0 -1  0)  (-1  0  0)  (-1  0  0)
  ( 0  0 -1)  ( 0  0 -1)  (-1  0  0)  (-1  0  0)  ( 0  1  0)  ( 0  1  0)
  ( 1  0  0)  (-1  0  0)  ( 0  0  1)  ( 0  0 -1)  ( 0  0  1)  ( 0  0 -1)

  (-1  0  0)  (-1  0  0)  (-1  0  0)  (-1  0  0)  (-1  0  0)  (-1  0  0)
  ( 0  0  1)  ( 0  0  1)  ( 0  0 -1)  ( 0  0 -1)  ( 0 -1  0)  ( 0 -1  0)
  ( 0  1  0)  ( 0 -1  0)  ( 0  1  0)  ( 0 -1  0)  ( 0  0  1)  ( 0  0 -1)

216 k-points: 6 x 6 x 6 Monkhorst-Pack grid
10 k-points in the irreducible part of the Brillouin zone
       k-points in crystal coordinates                weights
   0:     0.08333333    0.08333333    0.08333333          8/216
   1:     0.25000000    0.08333333    0.08333333         24/216
   2:     0.25000000    0.25000000    0.08333333         24/216
   3:     0.25000000    0.25000000    0.25000000          8/216
   4:     0.41666667    0.08333333    0.08333333         24/216
   5:     0.41666667    0.25000000    0.08333333         48/216
   6:     0.41666667    0.25000000    0.25000000         24/216
   7:     0.41666667    0.41666667    0.08333333         24/216
   8:     0.41666667    0.41666667    0.25000000         24/216
   9:     0.41666667    0.41666667    0.41666667          8/216

Wave functions: Plane wave expansion
  Cutoff energy: 600.000 eV
  Number of coefficients (min, max): 8310, 8338
  Pulay-stress correction: 0.000000 eV/Ang^3 (de/decut=0.000000)
  Using FFTW library
  ScaLapack parameters: grid=1x1, blocksize=None
  Wavefunction extrapolation:
    Improved wavefunction reuse through dual PAW basis 

Occupation numbers: Fermi-Dirac:
  width: 0.1000  # eV
 

Eigensolver
   Davidson(niter=2) 

Densities:
  Coarse grid: 36*36*36 grid
  Fine grid: 72*72*72 grid
  Total Charge: 0.000000 

Density mixing:
  Method: separate
  Backend: pulay
  Linear mixing parameter: 0.05
  old densities: 5
  Damping of long wavelength oscillations: 50 

Hamiltonian:
  XC and Coulomb potentials evaluated on a 72*72*72 grid
  Using the PBE Exchange-Correlation functional
  External potential:
    NoExternalPotential
 

XC parameters: PBE with 2 nearest neighbor stencil

Memory estimate:
  Process memory now: 310.68 MiB
  Calculator: 88.84 MiB
    Density: 26.10 MiB
      Arrays: 9.25 MiB
      Localized functions: 13.28 MiB
      Mixer: 3.56 MiB
    Hamiltonian: 6.41 MiB
      Arrays: 6.05 MiB
      XC: 0.00 MiB
      Poisson: 0.00 MiB
      vbar: 0.36 MiB
    Wavefunctions: 56.33 MiB
      Arrays psit_nG: 33.08 MiB
      Eigensolver: 4.05 MiB
      Projections: 0.28 MiB
      Projectors: 15.87 MiB
      PW-descriptor: 3.05 MiB

Total number of cores used: 1

Number of atoms: 5
Number of atomic orbitals: 26
Number of bands in calculation: 26
Number of valence electrons: 44
Bands to converge: occupied

... initialized

Initializing position-dependent things.

Density initialized from atomic densities
Creating initial wave functions:
  26 bands from LCAO basis set

                          
                          
                          
                          
         I       Pb       
               I          
                          
                          
                 I        
       Cs                 
                          
                          
                          
                          

Atomic positions and initial magnetic moments

Positions:
   0 Cs     0.000000    0.000000    0.000000    ( 0.0000,  0.0000,  0.0000)
   1 Pb     3.147183    3.147183    3.147183    ( 0.0000,  0.0000,  0.0000)
   2 I      3.147183    3.147183    0.000000    ( 0.0000,  0.0000,  0.0000)
   3 I     -0.000000    3.147183    3.147183    ( 0.0000,  0.0000,  0.0000)
   4 I      3.147183   -0.000000    3.147183    ( 0.0000,  0.0000,  0.0000)

Unit cell:
           periodic     x           y           z      points  spacing
  1. axis:    yes    6.294367   -0.000000    0.000000    36     0.1748
  2. axis:    yes   -0.000000    6.294367    0.000000    36     0.1748
  3. axis:    yes    0.000000    0.000000    6.294367    36     0.1748

  Lengths:   6.294367   6.294367   6.294367
  Angles:   90.000000  90.000000  90.000000

Effective grid spacing dv^(1/3) = 0.1748

     iter     time        total  log10-change:
                         energy   eigst   dens
iter:   1 01:48:24   -14.577556
iter:   2 01:48:27   -14.518512   -1.38  -1.31
iter:   3 01:48:30   -14.262318   -2.04  -1.36
iter:   4 01:48:32   -14.220871   -1.95  -1.54
iter:   5 01:48:34   -14.204356   -2.82  -1.75
iter:   6 01:48:37   -14.201630c  -4.11  -2.17
iter:   7 01:48:39   -14.198198c  -3.66  -2.34
iter:   8 01:48:42   -14.198438c  -4.32  -2.53
iter:   9 01:48:45   -14.198391c  -5.36  -3.16
iter:  10 01:48:47   -14.198386c  -5.79  -3.27
iter:  11 01:48:50   -14.198394c  -6.83  -3.20
iter:  12 01:48:53   -14.198416c  -5.47  -3.27
iter:  13 01:48:56   -14.198412c  -6.92  -3.93
iter:  14 01:48:58   -14.198411c  -7.76c -4.22c

Converged after 14 iterations.

Dipole moment: (-0.000000, -0.000000, -0.000000) |e|*Ang

Energy contributions relative to reference atoms: (reference = -1359696.926849)

Kinetic:        +30.895831
Potential:      -30.905990
External:        +0.000000
XC:             -14.055033
Entropy (-ST):   -0.000011
Local:           -0.133214
SIC:             +0.000000
--------------------------
Free energy:    -14.198417
Extrapolated:   -14.198411

Showing only first 2 kpts
 Kpt  Band  Eigenvalues  Occupancy
  0    20      1.16228    2.00000
  0    21      1.16228    2.00000
  0    22      5.66668    0.00000
  0    23      6.94914    0.00000

  1    20      1.12857    2.00000
  1    21      1.17388    2.00000
  1    22      6.12192    0.00000
  1    23      6.27616    0.00000


Fermi level: 3.07851

Gap: 2.113 eV
Transition (v -> c):
  (s=0, k=9, n=21, [0.42, 0.42, 0.42]) -> (s=0, k=9, n=22, [0.42, 0.42, 0.42])
No difference between direct/indirect transitions
Stress tensor:
    -0.004645    -0.000000     0.000000
    -0.000000    -0.004645     0.000000
     0.000000     0.000000    -0.004645

Forces in eV/Ang:
  0 Cs    0.00000    0.00000    0.00000
  1 Pb   -0.00000   -0.00000   -0.00000
  2 I     0.00000    0.00000    0.00000
  3 I     0.00000    0.00000    0.00000
  4 I     0.00000    0.00000    0.00000

System changes: cell, positions 

Initialize ...

species:
  Cs:
    name: Caesium
    id: fa822afd343f47335d508b9ee4f394c3
    Z: 55.0
    valence: 9
    core: 46
    charge: 0.0
    file: /home/buyer/miniconda3/envs/dft/lib/python3.11/site-packages/gpaw_data/setups/Cs.PBE.gz
    compensation charges: {type: gauss,
                           rc: 0.33,
                           lmax: 2}
    cutoffs: {filter: 2.06,
              core: 2.51}
    projectors:
      #              energy  rcut
      - 5s(2.00)   -26.706   1.164
      - 6s(1.00)    -2.085   1.164
      - 5p(6.00)   -13.523   1.058
      -  p          13.688   1.058
      -  d           0.000   1.058
  
    # Using partial waves for Cs as LCAO basis

  Pb:
    name: Lead
    id: 66e73b13d76dc837202bcdb13fee58e6
    Z: 82.0
    valence: 14
    core: 68
    charge: 0.0
    file: /home/buyer/miniconda3/envs/dft/lib/python3.11/site-packages/gpaw_data/setups/Pb.PBE.gz
    compensation charges: {type: gauss,
                           rc: 0.38,
                           lmax: 2}
    cutoffs: {filter: 2.36,
              core: 2.43}
    projectors:
      #              energy  rcut
      - 6s(2.00)   -11.969   1.259
      - 6p(2.00)    -3.506   1.275
      - 5d(10.00)   -21.211   1.217
      -  s          15.243   1.259
      -  p          23.705   1.275
      -  d           6.001   1.217
  
    # Using partial waves for Pb as LCAO basis

  I:
    name: Iodine
    id: 91405a398e4dfe788ff04f57531604ec
    Z: 53.0
    valence: 7
    core: 46
    charge: 0.0
    file: /home/buyer/miniconda3/envs/dft/lib/python3.11/site-packages/gpaw_data/setups/I.PBE.gz
    compensation charges: {type: gauss,
                           rc: 0.37,
                           lmax: 2}
    cutoffs: {filter: 2.06,
              core: 2.90}
    projectors:
      #              energy  rcut
      - 5s(2.00)   -17.382   1.164
      - 5p(5.00)    -7.088   1.164
      -  s           9.829   1.164
      -  p          20.123   1.164
      -  d           0.000   1.164
  
    # Using partial waves for I as LCAO basis

Reference energy: -1359696.926849  # eV

Spin-paired calculation

Convergence criteria:
 Maximum [total energy] change in last 3 cyles: 0.0005 eV / valence electron
 Maximum integral of absolute [dens]ity change: 0.0001 electrons / valence electron
 Maximum integral of absolute [eigenst]ate change: 4e-08 eV^2 / valence electron
 Maximum number of scf [iter]ations: 333
 (Square brackets indicate name in SCF output, whereas a 'c' in
 the SCF output indicates the quantity has converged.)

Symmetries present (total): 48

  ( 1  0  0)  ( 1  0  0)  ( 1  0  0)  ( 1  0  0)  ( 1  0  0)  ( 1  0  0)
  ( 0  1  0)  ( 0  1  0)  ( 0  0  1)  ( 0  0  1)  ( 0  0 -1)  ( 0  0 -1)
  ( 0  0  1)  ( 0  0 -1)  ( 0  1  0)  ( 0 -1  0)  ( 0  1  0)  ( 0 -1  0)

  ( 1  0  0)  ( 1  0  0)  ( 0  1  0)  ( 0  1  0)  ( 0  1  0)  ( 0  1  0)
  ( 0 -1  0)  ( 0 -1  0)  ( 1  0  0)  ( 1  0  0)  ( 0  0  1)  ( 0  0  1)
  ( 0  0  1)  ( 0  0 -1)  ( 0  0  1)  ( 0  0 -1)  ( 1  0  0)  (-1  0  0)

  ( 0  1  0)  ( 0  1  0)  ( 0  1  0)  ( 0  1  0)  ( 0  0  1)  ( 0  0  1)
  ( 0  0 -1)  ( 0  0 -1)  (-1  0  0)  (-1  0  0)  ( 1  0  0)  ( 1  0  0)
  ( 1  0  0)  (-1  0  0)  ( 0  0  1)  ( 0  0 -1)  ( 0  1  0)  ( 0 -1  0)

  ( 0  0  1)  ( 0  0  1)  ( 0  0  1)  ( 0  0  1)  ( 0  0  1)  ( 0  0  1)
  ( 0  1  0)  ( 0  1  0)  ( 0 -1  0)  ( 0 -1  0)  (-1  0  0)  (-1  0  0)
  ( 1  0  0)  (-1  0  0)  ( 1  0  0)  (-1  0  0)  ( 0  1  0)  ( 0 -1  0)

  ( 0  0 -1)  ( 0  0 -1)  ( 0  0 -1)  ( 0  0 -1)  ( 0  0 -1)  ( 0  0 -1)
  ( 1  0  0)  ( 1  0  0)  ( 0  1  0)  ( 0  1  0)  ( 0 -1  0)  ( 0 -1  0)
  ( 0  1  0)  ( 0 -1  0)  ( 1  0  0)  (-1  0  0)  ( 1  0  0)  (-1  0  0)

  ( 0  0 -1)  ( 0  0 -1)  ( 0 -1  0)  ( 0 -1  0)  ( 0 -1  0)  ( 0 -1  0)
  (-1  0  0)  (-1  0  0)  ( 1  0  0)  ( 1  0  0)  ( 0  0  1)  ( 0  0  1)
  ( 0  1  0)  ( 0 -1  0)  ( 0  0  1)  ( 0  0 -1)  ( 1  0  0)  (-1  0  0)

  ( 0 -1  0)  ( 0 -1  0)  ( 0 -1  0)  ( 0 -1  0)  (-1  0  0)  (-1  0  0)
  ( 0  0 -1)  ( 0  0 -1)  (-1  0  0)  (-1  0  0)  ( 0  1  0)  ( 0  1  0)
  ( 1  0  0)  (-1  0  0)  ( 0  0  1)  ( 0  0 -1)  ( 0  0  1)  ( 0  0 -1)

  (-1  0  0)  (-1  0  0)  (-1  0  0)  (-1  0  0)  (-1  0  0)  (-1  0  0)
  ( 0  0  1)  ( 0  0  1)  ( 0  0 -1)  ( 0  0 -1)  ( 0 -1  0)  ( 0 -1  0)
  ( 0  1  0)  ( 0 -1  0)  ( 0  1  0)  ( 0 -1  0)  ( 0  0  1)  ( 0  0 -1)

216 k-points: 6 x 6 x 6 Monkhorst-Pack grid
10 k-points in the irreducible part of the Brillouin zone
       k-points in crystal coordinates                weights
   0:     0.08333333    0.08333333    0.08333333          8/216
   1:     0.25000000    0.08333333    0.08333333         24/216
   2:     0.25000000    0.25000000    0.08333333         24/216
   3:     0.25000000    0.25000000    0.25000000          8/216
   4:     0.41666667    0.08333333    0.08333333         24/216
   5:     0.41666667    0.25000000    0.08333333         48/216
   6:     0.41666667    0.25000000    0.25000000         24/216
   7:     0.41666667    0.41666667    0.08333333         24/216
   8:     0.41666667    0.41666667    0.25000000         24/216
   9:     0.41666667    0.41666667    0.41666667          8/216

Wave functions: Plane wave expansion
  Cutoff energy: 600.000 eV
  Number of coefficients (min, max): 8658, 8699
  Pulay-stress correction: 0.000000 eV/Ang^3 (de/decut=0.000000)
  Using FFTW library
  ScaLapack parameters: grid=1x1, blocksize=None
  Wavefunction extrapolation:
    Improved wavefunction reuse through dual PAW basis 

Occupation numbers: Fermi-Dirac:
  width: 0.1000  # eV
 

Eigensolver
   Davidson(niter=2) 

Densities:
  Coarse grid: 40*40*40 grid
  Fine grid: 80*80*80 grid
  Total Charge: 0.000000 

Density mixing:
  Method: separate
  Backend: pulay
  Linear mixing parameter: 0.05
  old densities: 5
  Damping of long wavelength oscillations: 50 

Hamiltonian:
  XC and Coulomb potentials evaluated on a 80*80*80 grid
  Using the PBE Exchange-Correlation functional
  External potential:
    NoExternalPotential
 

XC parameters: PBE with 2 nearest neighbor stencil

Memory estimate:
  Process memory now: 321.61 MiB
  Calculator: 99.48 MiB
    Density: 31.46 MiB
      Arrays: 12.70 MiB
      Localized functions: 13.89 MiB
      Mixer: 4.88 MiB
    Hamiltonian: 8.68 MiB
      Arrays: 8.30 MiB
      XC: 0.00 MiB
      Poisson: 0.00 MiB
      vbar: 0.37 MiB
    Wavefunctions: 59.34 MiB
      Arrays psit_nG: 34.51 MiB
      Eigensolver: 4.22 MiB
      Projections: 0.28 MiB
      Projectors: 16.56 MiB
      PW-descriptor: 3.77 MiB

Total number of cores used: 1

Number of atoms: 5
Number of atomic orbitals: 26
Number of bands in calculation: 26
Number of valence electrons: 44
Bands to converge: occupied

... initialized

Initializing position-dependent things.

Density initialized from atomic densities
Creating initial wave functions:
  26 bands from LCAO basis set

                          
                          
                          
                          
         I       Pb       
               I          
                          
                          
                 I        
       Cs                 
                          
                          
                          
                          

Atomic positions and initial magnetic moments

Positions:
   0 Cs     0.000000    0.000000    0.000000    ( 0.0000,  0.0000,  0.0000)
   1 Pb     3.192712    3.192712    3.192712    ( 0.0000,  0.0000,  0.0000)
   2 I      3.192712    3.192712   -0.000000    ( 0.0000,  0.0000,  0.0000)
   3 I      0.000000    3.192712    3.192712    ( 0.0000,  0.0000,  0.0000)
   4 I      3.192712    0.000000    3.192712    ( 0.0000,  0.0000,  0.0000)

Unit cell:
           periodic     x           y           z      points  spacing
  1. axis:    yes    6.385424    0.000000    0.000000    40     0.1596
  2. axis:    yes    0.000000    6.385424    0.000000    40     0.1596
  3. axis:    yes   -0.000000   -0.000000    6.385424    40     0.1596

  Lengths:   6.385424   6.385424   6.385424
  Angles:   90.000000  90.000000  90.000000

Effective grid spacing dv^(1/3) = 0.1596

     iter     time        total  log10-change:
                         energy   eigst   dens
iter:   1 01:49:07   -14.668025
iter:   2 01:49:10   -14.593610   -1.41  -1.29
iter:   3 01:49:13   -14.292556   -1.99  -1.33
iter:   4 01:49:16   -14.249189   -1.93  -1.53
iter:   5 01:49:19   -14.238176   -2.68  -1.73
iter:   6 01:49:22   -14.229071c  -3.65  -2.07
iter:   7 01:49:25   -14.223903c  -3.48  -2.27
iter:   8 01:49:28   -14.224235c  -4.31  -2.48
iter:   9 01:49:31   -14.224159c  -5.30  -3.10
iter:  10 01:49:33   -14.224156c  -5.84  -3.25
iter:  11 01:49:36   -14.224167c  -6.80  -3.19
iter:  12 01:49:39   -14.224190c  -5.49  -3.25
iter:  13 01:49:42   -14.224184c  -6.86  -3.77
iter:  14 01:49:45   -14.224183c  -7.76c -4.27c

Converged after 14 iterations.

Dipole moment: (0.000000, -0.000000, 0.000000) |e|*Ang

Energy contributions relative to reference atoms: (reference = -1359696.926849)

Kinetic:        +26.079790
Potential:      -26.965108
External:        +0.000000
XC:             -13.209756
Entropy (-ST):   -0.000010
Local:           -0.129104
SIC:             +0.000000
--------------------------
Free energy:    -14.224188
Extrapolated:   -14.224183

Showing only first 2 kpts
 Kpt  Band  Eigenvalues  Occupancy
  0    20      0.87735    2.00000
  0    21      0.87735    2.00000
  0    22      5.31320    0.00000
  0    23      6.72208    0.00000

  1    20      0.84985    2.00000
  1    21      0.88325    2.00000
  1    22      5.72319    0.00000
  1    23      5.78943    0.00000


Fermi level: 2.66747

Gap: 2.166 eV
Transition (v -> c):
  (s=0, k=9, n=21, [0.42, 0.42, 0.42]) -> (s=0, k=9, n=22, [0.42, 0.42, 0.42])
No difference between direct/indirect transitions
Stress tensor:
    -0.000218    -0.000000     0.000000
    -0.000000    -0.000218     0.000000
     0.000000     0.000000    -0.000218

Forces in eV/Ang:
  0 Cs    0.00000    0.00000    0.00000
  1 Pb    0.00000    0.00000    0.00000
  2 I    -0.00000    0.00000    0.00000
  3 I     0.00000    0.00000    0.00000
  4 I     0.00000   -0.00000    0.00000

System changes: cell, positions 

Initialize ...

species:
  Cs:
    name: Caesium
    id: fa822afd343f47335d508b9ee4f394c3
    Z: 55.0
    valence: 9
    core: 46
    charge: 0.0
    file: /home/buyer/miniconda3/envs/dft/lib/python3.11/site-packages/gpaw_data/setups/Cs.PBE.gz
    compensation charges: {type: gauss,
                           rc: 0.33,
                           lmax: 2}
    cutoffs: {filter: 2.06,
              core: 2.51}
    projectors:
      #              energy  rcut
      - 5s(2.00)   -26.706   1.164
      - 6s(1.00)    -2.085   1.164
      - 5p(6.00)   -13.523   1.058
      -  p          13.688   1.058
      -  d           0.000   1.058
  
    # Using partial waves for Cs as LCAO basis

  Pb:
    name: Lead
    id: 66e73b13d76dc837202bcdb13fee58e6
    Z: 82.0
    valence: 14
    core: 68
    charge: 0.0
    file: /home/buyer/miniconda3/envs/dft/lib/python3.11/site-packages/gpaw_data/setups/Pb.PBE.gz
    compensation charges: {type: gauss,
                           rc: 0.38,
                           lmax: 2}
    cutoffs: {filter: 2.36,
              core: 2.43}
    projectors:
      #              energy  rcut
      - 6s(2.00)   -11.969   1.259
      - 6p(2.00)    -3.506   1.275
      - 5d(10.00)   -21.211   1.217
      -  s          15.243   1.259
      -  p          23.705   1.275
      -  d           6.001   1.217
  
    # Using partial waves for Pb as LCAO basis

  I:
    name: Iodine
    id: 91405a398e4dfe788ff04f57531604ec
    Z: 53.0
    valence: 7
    core: 46
    charge: 0.0
    file: /home/buyer/miniconda3/envs/dft/lib/python3.11/site-packages/gpaw_data/setups/I.PBE.gz
    compensation charges: {type: gauss,
                           rc: 0.37,
                           lmax: 2}
    cutoffs: {filter: 2.06,
              core: 2.90}
    projectors:
      #              energy  rcut
      - 5s(2.00)   -17.382   1.164
      - 5p(5.00)    -7.088   1.164
      -  s           9.829   1.164
      -  p          20.123   1.164
      -  d           0.000   1.164
  
    # Using partial waves for I as LCAO basis

Reference energy: -1359696.926849  # eV

Spin-paired calculation

Convergence criteria:
 Maximum [total energy] change in last 3 cyles: 0.0005 eV / valence electron
 Maximum integral of absolute [dens]ity change: 0.0001 electrons / valence electron
 Maximum integral of absolute [eigenst]ate change: 4e-08 eV^2 / valence electron
 Maximum number of scf [iter]ations: 333
 (Square brackets indicate name in SCF output, whereas a 'c' in
 the SCF output indicates the quantity has converged.)

Symmetries present (total): 48

  ( 1  0  0)  ( 1  0  0)  ( 1  0  0)  ( 1  0  0)  ( 1  0  0)  ( 1  0  0)
  ( 0  1  0)  ( 0  1  0)  ( 0  0  1)  ( 0  0  1)  ( 0  0 -1)  ( 0  0 -1)
  ( 0  0  1)  ( 0  0 -1)  ( 0  1  0)  ( 0 -1  0)  ( 0  1  0)  ( 0 -1  0)

  ( 1  0  0)  ( 1  0  0)  ( 0  1  0)  ( 0  1  0)  ( 0  1  0)  ( 0  1  0)
  ( 0 -1  0)  ( 0 -1  0)  ( 1  0  0)  ( 1  0  0)  ( 0  0  1)  ( 0  0  1)
  ( 0  0  1)  ( 0  0 -1)  ( 0  0  1)  ( 0  0 -1)  ( 1  0  0)  (-1  0  0)

  ( 0  1  0)  ( 0  1  0)  ( 0  1  0)  ( 0  1  0)  ( 0  0  1)  ( 0  0  1)
  ( 0  0 -1)  ( 0  0 -1)  (-1  0  0)  (-1  0  0)  ( 1  0  0)  ( 1  0  0)
  ( 1  0  0)  (-1  0  0)  ( 0  0  1)  ( 0  0 -1)  ( 0  1  0)  ( 0 -1  0)

  ( 0  0  1)  ( 0  0  1)  ( 0  0  1)  ( 0  0  1)  ( 0  0  1)  ( 0  0  1)
  ( 0  1  0)  ( 0  1  0)  ( 0 -1  0)  ( 0 -1  0)  (-1  0  0)  (-1  0  0)
  ( 1  0  0)  (-1  0  0)  ( 1  0  0)  (-1  0  0)  ( 0  1  0)  ( 0 -1  0)

  ( 0  0 -1)  ( 0  0 -1)  ( 0  0 -1)  ( 0  0 -1)  ( 0  0 -1)  ( 0  0 -1)
  ( 1  0  0)  ( 1  0  0)  ( 0  1  0)  ( 0  1  0)  ( 0 -1  0)  ( 0 -1  0)
  ( 0  1  0)  ( 0 -1  0)  ( 1  0  0)  (-1  0  0)  ( 1  0  0)  (-1  0  0)

  ( 0  0 -1)  ( 0  0 -1)  ( 0 -1  0)  ( 0 -1  0)  ( 0 -1  0)  ( 0 -1  0)
  (-1  0  0)  (-1  0  0)  ( 1  0  0)  ( 1  0  0)  ( 0  0  1)  ( 0  0  1)
  ( 0  1  0)  ( 0 -1  0)  ( 0  0  1)  ( 0  0 -1)  ( 1  0  0)  (-1  0  0)

  ( 0 -1  0)  ( 0 -1  0)  ( 0 -1  0)  ( 0 -1  0)  (-1  0  0)  (-1  0  0)
  ( 0  0 -1)  ( 0  0 -1)  (-1  0  0)  (-1  0  0)  ( 0  1  0)  ( 0  1  0)
  ( 1  0  0)  (-1  0  0)  ( 0  0  1)  ( 0  0 -1)  ( 0  0  1)  ( 0  0 -1)

  (-1  0  0)  (-1  0  0)  (-1  0  0)  (-1  0  0)  (-1  0  0)  (-1  0  0)
  ( 0  0  1)  ( 0  0  1)  ( 0  0 -1)  ( 0  0 -1)  ( 0 -1  0)  ( 0 -1  0)
  ( 0  1  0)  ( 0 -1  0)  ( 0  1  0)  ( 0 -1  0)  ( 0  0  1)  ( 0  0 -1)

216 k-points: 6 x 6 x 6 Monkhorst-Pack grid
10 k-points in the irreducible part of the Brillouin zone
       k-points in crystal coordinates                weights
   0:     0.08333333    0.08333333    0.08333333          8/216
   1:     0.25000000    0.08333333    0.08333333         24/216
   2:     0.25000000    0.25000000    0.08333333         24/216
   3:     0.25000000    0.25000000    0.25000000          8/216
   4:     0.41666667    0.08333333    0.08333333         24/216
   5:     0.41666667    0.25000000    0.08333333         48/216
   6:     0.41666667    0.25000000    0.25000000         24/216
   7:     0.41666667    0.41666667    0.08333333         24/216
   8:     0.41666667    0.41666667    0.25000000         24/216
   9:     0.41666667    0.41666667    0.41666667          8/216

Wave functions: Plane wave expansion
  Cutoff energy: 600.000 eV
  Number of coefficients (min, max): 8692, 8725
  Pulay-stress correction: 0.000000 eV/Ang^3 (de/decut=0.000000)
  Using FFTW library
  ScaLapack parameters: grid=1x1, blocksize=None
  Wavefunction extrapolation:
    Improved wavefunction reuse through dual PAW basis 

Occupation numbers: Fermi-Dirac:
  width: 0.1000  # eV
 

Eigensolver
   Davidson(niter=2) 

Densities:
  Coarse grid: 40*40*40 grid
  Fine grid: 80*80*80 grid
  Total Charge: 0.000000 

Density mixing:
  Method: separate
  Backend: pulay
  Linear mixing parameter: 0.05
  old densities: 5
  Damping of long wavelength oscillations: 50 

Hamiltonian:
  XC and Coulomb potentials evaluated on a 80*80*80 grid
  Using the PBE Exchange-Correlation functional
  External potential:
    NoExternalPotential
 

XC parameters: PBE with 2 nearest neighbor stencil

Memory estimate:
  Process memory now: 354.04 MiB
  Calculator: 99.66 MiB
    Density: 31.48 MiB
      Arrays: 12.70 MiB
      Localized functions: 13.90 MiB
      Mixer: 4.88 MiB
    Hamiltonian: 8.68 MiB
      Arrays: 8.30 MiB
      XC: 0.00 MiB
      Poisson: 0.00 MiB
      vbar: 0.37 MiB
    Wavefunctions: 59.51 MiB
      Arrays psit_nG: 34.61 MiB
      Eigensolver: 4.23 MiB
      Projections: 0.28 MiB
      Projectors: 16.61 MiB
      PW-descriptor: 3.77 MiB

Total number of cores used: 1

Number of atoms: 5
Number of atomic orbitals: 26
Number of bands in calculation: 26
Number of valence electrons: 44
Bands to converge: occupied

... initialized

Initializing position-dependent things.

Density initialized from atomic densities
Creating initial wave functions:
  26 bands from LCAO basis set

                          
                          
                          
                          
         I       Pb       
               I          
                          
                          
                 I        
       Cs                 
                          
                          
                          
                          

Atomic positions and initial magnetic moments

Positions:
   0 Cs     0.000000    0.000000    0.000000    ( 0.0000,  0.0000,  0.0000)
   1 Pb     3.195077    3.195077    3.195077    ( 0.0000,  0.0000,  0.0000)
   2 I      3.195077    3.195077   -0.000000    ( 0.0000,  0.0000,  0.0000)
   3 I      0.000000    3.195077    3.195077    ( 0.0000,  0.0000,  0.0000)
   4 I      3.195077    0.000000    3.195077    ( 0.0000,  0.0000,  0.0000)

Unit cell:
           periodic     x           y           z      points  spacing
  1. axis:    yes    6.390155    0.000000   -0.000000    40     0.1598
  2. axis:    yes    0.000000    6.390155    0.000000    40     0.1598
  3. axis:    yes   -0.000000    0.000000    6.390155    40     0.1598

  Lengths:   6.390155   6.390155   6.390155
  Angles:   90.000000  90.000000  90.000000

Effective grid spacing dv^(1/3) = 0.1598

     iter     time        total  log10-change:
                         energy   eigst   dens
iter:   1 01:49:53   -14.671617
iter:   2 01:49:56   -14.596374   -1.42  -1.29
iter:   3 01:49:58   -14.293037   -1.98  -1.33
iter:   4 01:50:01   -14.249631   -1.93  -1.53
iter:   5 01:50:04   -14.238736   -2.67  -1.73
iter:   6 01:50:07   -14.229292c  -3.64  -2.06
iter:   7 01:50:10   -14.223978c  -3.47  -2.27
iter:   8 01:50:12   -14.224313c  -4.31  -2.48
iter:   9 01:50:15   -14.224237c  -5.30  -3.10
iter:  10 01:50:18   -14.224234c  -5.84  -3.25
iter:  11 01:50:20   -14.224245c  -6.79  -3.18
iter:  12 01:50:23   -14.224268c  -5.51  -3.25
iter:  13 01:50:26   -14.224262c  -6.90  -3.80
iter:  14 01:50:28   -14.224261c  -7.80c -4.27c

Converged after 14 iterations.

Dipole moment: (0.000000, 0.000000, 0.000000) |e|*Ang

Energy contributions relative to reference atoms: (reference = -1359696.926849)

Kinetic:        +25.847154
Potential:      -26.774690
External:        +0.000000
XC:             -13.167975
Entropy (-ST):   -0.000010
Local:           -0.128746
SIC:             +0.000000
--------------------------
Free energy:    -14.224266
Extrapolated:   -14.224261

Showing only first 2 kpts
 Kpt  Band  Eigenvalues  Occupancy
  0    20      0.86304    2.00000
  0    21      0.86304    2.00000
  0    22      5.29545    0.00000
  0    23      6.70922    0.00000

  1    20      0.83585    2.00000
  1    21      0.86868    2.00000
  1    22      5.70070    0.00000
  1    23      5.76726    0.00000


Fermi level: 2.64705

Gap: 2.168 eV
Transition (v -> c):
  (s=0, k=9, n=21, [0.42, 0.42, 0.42]) -> (s=0, k=9, n=22, [0.42, 0.42, 0.42])
No difference between direct/indirect transitions
Stress tensor:
    -0.000015    -0.000000     0.000000
    -0.000000    -0.000015     0.000000
     0.000000     0.000000    -0.000015

Forces in eV/Ang:
  0 Cs   -0.00000   -0.00000   -0.00000
  1 Pb    0.00000    0.00000    0.00000
  2 I    -0.00000    0.00000    0.00000
  3 I     0.00000    0.00000    0.00000
  4 I     0.00000    0.00000    0.00000

Timing:                              incl.     excl.
-----------------------------------------------------------
Forces:                              0.868     0.868   0.5% |
Hamiltonian:                         0.983     0.004   0.0% |
 Atomic:                             0.471     0.002   0.0% |
  XC Correction:                     0.469     0.469   0.3% |
 Calculate atomic Hamiltonians:      0.060     0.060   0.0% |
 Communicate:                        0.000     0.000   0.0% |
 Initialize Hamiltonian:             0.001     0.001   0.0% |
 Poisson:                            0.005     0.005   0.0% |
 XC 3D grid:                         0.442     0.442   0.3% |
LCAO initialization:                 6.682     0.350   0.2% |
 LCAO eigensolver:                   0.534     0.001   0.0% |
  Calculate projections:             0.003     0.003   0.0% |
  DenseAtomicCorrection:             0.008     0.008   0.0% |
  Distribute overlap matrix:         0.001     0.001   0.0% |
  Orbital Layouts:                   0.130     0.130   0.1% |
  Potential matrix:                  0.337     0.337   0.2% |
  Sum over cells:                    0.054     0.054   0.0% |
 LCAO to grid:                       5.565     5.565   3.4% ||
 Set positions (LCAO WFS):           0.233     0.028   0.0% |
  Basic WFS set positions:           0.011     0.011   0.0% |
  Basis functions set positions:     0.000     0.000   0.0% |
  P tci:                             0.100     0.100   0.1% |
  ST tci:                            0.053     0.053   0.0% |
  mktci:                             0.041     0.041   0.0% |
PWDescriptor:                        0.294     0.294   0.2% |
SCF-cycle:                         145.255     0.209   0.1% |
 Davidson:                         118.175    19.402  11.7% |----|
  Apply H:                          20.209    19.577  11.8% |----|
   HMM T:                            0.632     0.632   0.4% |
  Subspace diag:                    22.980     0.061   0.0% |
   calc_h_matrix:                   20.508     0.963   0.6% |
    Apply H:                        19.546    18.904  11.4% |----|
     HMM T:                          0.642     0.642   0.4% |
   diagonalize:                      0.227     0.227   0.1% |
   rotate_psi:                       2.184     2.184   1.3% ||
  calc. matrices:                   46.853     6.432   3.9% |-|
   Apply H:                         40.421    39.168  23.6% |--------|
    HMM T:                           1.253     1.253   0.8% |
  diagonalize:                       5.808     5.808   3.5% ||
  rotate_psi:                        2.923     2.923   1.8% ||
 Density:                           14.335     0.001   0.0% |
  Atomic density matrices:           0.094     0.094   0.1% |
  Mix:                               2.040     2.040   1.2% |
  Multipole moments:                 0.005     0.005   0.0% |
  Pseudo density:                   12.195     6.839   4.1% |-|
   Symmetrize density:               5.356     5.356   3.2% ||
 Hamiltonian:                       12.133     0.062   0.0% |
  Atomic:                            6.249     0.026   0.0% |
   XC Correction:                    6.223     6.223   3.8% |-|
  Calculate atomic Hamiltonians:     0.845     0.845   0.5% |
  Communicate:                       0.000     0.000   0.0% |
  Poisson:                           0.079     0.079   0.0% |
  XC 3D grid:                        4.898     4.898   3.0% ||
 Orthonormalize:                     0.404     0.004   0.0% |
  calc_s_matrix:                     0.069     0.069   0.0% |
  inverse-cholesky:                  0.007     0.007   0.0% |
  projections:                       0.214     0.214   0.1% |
  rotate_psi_s:                      0.110     0.110   0.1% |
Set symmetry:                        0.050     0.050   0.0% |
Stress:                              9.204     0.002   0.0% |
 Stress tensor:                      9.202     9.202   5.6% |-|
Other:                               2.467     2.467   1.5% ||
-----------------------------------------------------------
Total:                                       165.803 100.0%

Memory usage: 354.04 MiB
Date: Sun Jul 12 01:50:30 2026
