41
Lattice="12.78 0.0 0.0 0.0 12.78 0.0 0.0 0.0 12.78" Properties=species:S:1:pos:R:3:spacegroup_kinds:I:1:forces:R:3:energies:R:1 spacegroup="P m -3 m" unit_cell=conventional energy=-115.36027148580736 stress="0.0011679082826401108 -1.5984000063182163e-16 1.510384958543781e-12 -1.5984000063182163e-16 -0.0016962281534743274 -1.9374685063762986e-15 1.510384958543781e-12 -1.9374685063762986e-15 0.001539375097276459" free_energy=-115.36027148580736 pbc="T T T"
Cs      -0.16938329      -0.19796969      -0.00000000        0       0.00187577      -0.00053791       0.00000001      -3.52863236
Pb       3.31251806       3.19500000       2.73987972        1      -0.00135601      -0.00000000      -0.00002822      -4.46900679
I        1.46384383       3.19500000      -0.00000003        2      -0.00060140      -0.00000000       0.00000018      -1.98115448
I        0.06978029       3.19500000       3.69107148        2      -0.00345866       0.00000000       0.00117711      -1.99816616
I        3.25131550      -0.00296867       3.04767753        2      -0.00117119      -0.00079353       0.00175412      -2.07662952
Cs       0.39329422       0.23399333       6.39000000        0       0.00671987      -0.00164501      -0.00000001      -3.56793390
Pb       3.31251806       3.19500000      10.04012027        1      -0.00135600       0.00000000       0.00002823      -4.46900691
I        3.26998210       3.19500000       6.39000002        2       0.00665538      -0.00000000      -0.00000013      -1.93200232
I        0.06978040       3.19500000       9.08892852        2      -0.00345932      -0.00000000      -0.00117715      -1.99816619
I        3.25131550      -0.00296852       9.73232248        2      -0.00117120      -0.00079440      -0.00175417      -2.07662954
Cs      -0.16938329       6.58796969      -0.00000000        0       0.00187577       0.00053791       0.00000001      -3.52863236
Pb       3.21092171       9.58500000       3.16101573        1      -0.00143323       0.00000000       0.01526364      -4.41699991
I        2.40879326       9.58500000       0.00000006        2      -0.00859073       0.00000000      -0.00000031      -2.10797971
I        0.01478380       9.58500000       3.98537461        2       0.00318166      -0.00000000      -0.00446656      -2.09681251
I        3.25131550       6.39296867       3.04767753        2      -0.00117119       0.00079353       0.00175412      -2.07662952
Cs       0.39329422       6.15600667       6.39000000        0       0.00671987       0.00164501      -0.00000001      -3.56793390
Pb       3.21092170       9.58500000       9.61898426        1      -0.00143320      -0.00000000      -0.01526359      -4.41699973
I        3.90271983       9.58500000       6.38999994        2      -0.00390774       0.00000000       0.00000029      -2.11195141
I        0.01478368       9.58500000       8.79462539        2       0.00318229       0.00000000       0.00446656      -2.09681250
I        3.25131550       6.39296852       9.73232248        2      -0.00117120       0.00079440      -0.00175417      -2.07662954
Cs       6.93948119      -0.17671602      -0.00000000        0      -0.00665915      -0.00029252       0.00000001      -3.53226976
Pb       9.67948233       3.19500000       3.24578433        1       0.00357904      -0.00000000      -0.00005135      -4.46465198
I        9.71000765       3.19500000       0.00000008        2      -0.00067750       0.00000000      -0.00000052      -2.07167490
I        6.49580419       3.19500000       3.74607953        2       0.00578746       0.00000000       0.00082886      -2.00995040
I        9.67815317      -0.01749824       3.14662157        2      -0.00313841       0.00289824       0.00112594      -2.08685358
Cs       6.26123640       0.17927805       6.39000000        0       0.00082590       0.00205973      -0.00000001      -3.56856291
Pb       9.67948233       3.19500000       9.53421571        1       0.00357906      -0.00000000       0.00005108      -4.46465178
I        9.69673819       3.19500000       6.38999989        2       0.00772969       0.00000000       0.00000078      -1.94350251
I        6.49580409       3.19500000       9.03392047        2       0.00578811      -0.00000000      -0.00082891      -2.00995044
I        9.67815317      -0.01749844       9.63337843        2      -0.00313839       0.00289945      -0.00112594      -2.08685359
Cs       6.93948119       6.56671602      -0.00000000        0      -0.00665915       0.00029252       0.00000001      -3.53226976
Pb       9.60395441       9.58500000       3.31283111        1       0.00532085       0.00000000      -0.01366746      -4.39411044
I       10.13746608       9.58500000      -0.00000006        2      -0.00184001      -0.00000000       0.00000031      -2.15723461
I        6.40874470       9.58500000       2.51022230        2      -0.00295091      -0.00000000      -0.00141052      -2.10827723
I        9.67815317       6.40749824       3.14662157        2      -0.00313841      -0.00289824       0.00112594      -2.08685358
Cs       6.26123640       6.21072195       6.39000000        0       0.00082590      -0.00205973      -0.00000001      -3.56856291
Pb       9.60395441       9.58500000       9.46716889        1       0.00532085      -0.00000000       0.01366746      -4.39411062
I        8.64586222       9.58500000       6.39000007        2      -0.00557299      -0.00000000      -0.00000037      -2.10495029
I        6.40874481       9.58500000      10.26977771        2      -0.00295156       0.00000000       0.00141052      -2.10827722
I        9.67815317       6.40749844       9.63337843        2      -0.00313839      -0.00289945      -0.00112594      -2.08685359
I        5.18047615       3.19500000      -0.00000003        0       0.00117846      -0.00000000       0.00000017      -1.98514015
