39
Lattice="12.78 0.0 0.0 0.0 12.78 0.0 0.0 0.0 12.78" Properties=species:S:1:pos:R:3:spacegroup_kinds:I:1:magmoms:R:1:forces:R:3 spacegroup="P m -3 m" unit_cell=conventional energy=-110.36572005474382 free_energy=-110.45612848750683 dipole="37.70854642154094 37.70854642154091 4.08967027185203e-12" magmom=0.0 pbc="T T T"
Cs      -0.21000891      -0.21000891       0.00000000        0       0.00000000       0.01238175       0.01238175       0.00000000
Pb       3.19498019       3.19498019       3.19335203        1       0.00000000       0.00001709       0.00001709      -0.00520349
I        0.00352201       3.19496025       3.06077781        2       0.00000000       0.00382774       0.00001679      -0.01789138
I        3.19496025       0.00352201       3.06077781        2       0.00000000       0.00001679       0.00382774      -0.01789138
Cs       0.05230030       0.05230030       6.39000000        0       0.00000000       0.00546451       0.00546451       0.00000000
Pb       3.19498019       3.19498019       9.58664797        1       0.00000000       0.00001709       0.00001709       0.00520349
I        3.19495831       3.19495831       6.39000000        2       0.00000000       0.00002493       0.00002493       0.00000000
I        0.00352201       3.19496025       9.71922219        2       0.00000000       0.00382774       0.00001679       0.01789138
I        3.19496025       0.00352201       9.71922219        2       0.00000000       0.00001679       0.00382774       0.01789138
Cs      -0.21000211       6.60001185       0.00000000        0       0.00000000       0.01237750      -0.01237305       0.00000000
Pb       3.19498019       9.58502149       3.18573528        1       0.00000000       0.00002407      -0.00003117      -0.00420276
I        3.19495717       9.58503310      -0.00000000        2       0.00000000       0.00001464      -0.00001910       0.00000000
I       -0.00460274       9.58503802       3.19431400        2       0.00000000      -0.00452707      -0.00001623      -0.00978584
I        3.19496178       6.38648769       3.06079665        2       0.00000000       0.00001541      -0.00382447      -0.01787668
Cs       0.05229994       6.33769766       6.39000000        0       0.00000000       0.00546663      -0.00546669       0.00000000
Pb       3.19498019       9.58502149       9.59426472        1       0.00000000       0.00002407      -0.00003117       0.00420276
I        3.19496230       9.58504510       6.39000000        2       0.00000000       0.00001414      -0.00000577       0.00000000
I       -0.00460274       9.58503802       9.58568600        2       0.00000000      -0.00452707      -0.00001623       0.00978584
I        3.19496178       6.38648769       9.71920335        2       0.00000000       0.00001541      -0.00382447       0.01787668
Cs       6.60001185      -0.21000211       0.00000000        0       0.00000000      -0.01237305       0.01237750       0.00000000
Pb       9.58502149       3.19498019       3.18573528        1       0.00000000      -0.00003117       0.00002407      -0.00420276
I        9.58503310       3.19495717      -0.00000000        2       0.00000000      -0.00001910       0.00001464       0.00000000
I        6.38648769       3.19496178       3.06079665        2       0.00000000      -0.00382447       0.00001541      -0.01787668
I        9.58503802      -0.00460274       3.19431400        2       0.00000000      -0.00001623      -0.00452707      -0.00978584
Cs       6.33769766       0.05229994       6.39000000        0       0.00000000      -0.00546669       0.00546663       0.00000000
Pb       9.58502149       3.19498019       9.59426472        1       0.00000000      -0.00003117       0.00002407       0.00420276
I        9.58504510       3.19496230       6.39000000        2       0.00000000      -0.00000577       0.00001414       0.00000000
I        6.38648769       3.19496178       9.71920335        2       0.00000000      -0.00382447       0.00001541       0.01787668
I        9.58503802      -0.00460274       9.58568600        2       0.00000000      -0.00001623      -0.00452707       0.00978584
Cs       6.60000464       6.60000464      -0.00000000        0       0.00000000      -0.01236897      -0.01236897       0.00000000
Pb       9.58501934       9.58501934       3.23056185        1       0.00000000      -0.00002950      -0.00002950      -0.00635202
I        9.58503312       9.58503312       0.00000000        2       0.00000000      -0.00002539      -0.00002539       0.00000000
I        6.39460222       9.58503635       3.19431637        2       0.00000000       0.00452714      -0.00001474      -0.00978783
I        9.58503635       6.39460222       3.19431637        2       0.00000000      -0.00001474       0.00452714      -0.00978783
Cs       6.33769800       6.33769800       6.39000000        0       0.00000000      -0.00546879      -0.00546879       0.00000000
Pb       9.58501934       9.58501934       9.54943815        1       0.00000000      -0.00002950      -0.00002950       0.00635202
I        9.58504006       9.58504006       6.39000000        2       0.00000000      -0.00001315      -0.00001315       0.00000000
I        6.39460222       9.58503635       9.58568363        2       0.00000000       0.00452714      -0.00001474       0.00978783
I        9.58503635       6.39460222       9.58568363        2       0.00000000      -0.00001474       0.00452714       0.00978783
