16
Lattice="9.763069730001662 -3.3957311702807318e-15 -6.871909761854987e-13 2.975115627647596e-15 5.040730586115676 -2.479916318424523e-12 -2.629675224763911e-12 -7.90383118491228e-12 20.55181727061724" Properties=species:S:1:pos:R:3:spacegroup_kinds:I:1:forces:R:3:energies:R:1 spacegroup="P n m a" unit_cell=conventional energy=-44.06484727449705 stress="0.000220381785819569 -9.718348591952854e-17 -3.3000860191426555e-13 -9.718348591952854e-17 0.0004921092679194681 5.954070100923716e-14 -3.3000860191426555e-13 5.954070100923716e-14 0.0001691518307022913" free_energy=-44.06484727449705 pbc="T T T"
Cs       1.67275353       1.26018265       3.02270231        0      -0.00822355       0.00000000      -0.01826031      -2.93963008
Cs       3.20878134       3.78054794      13.29861095        0       0.00822355       0.00000000      -0.01826031      -2.93963008
Cs       8.09031620       3.78054794      17.52911496        0       0.00822355      -0.00000000       0.01826031      -2.93963008
Cs       6.55428839       1.26018265       7.25320632        0      -0.00822355      -0.00000000       0.01826031      -2.93963008
Pb       1.47287791       1.26018265       9.05085714        1      -0.01151320      -0.00000000      -0.00375868      -3.54534554
Pb       3.40865695       3.78054794      19.32676578        1       0.01151320      -0.00000000      -0.00375868      -3.54534554
Pb       8.29019182       3.78054794      11.50096013        1       0.01151320       0.00000000       0.00375868      -3.54534554
Pb       6.35441278       1.26018265       1.22505149        1      -0.01151320       0.00000000       0.00375868      -3.54534554
I        3.00805935       1.26018265       6.48256553        2       0.01178457      -0.00000000       0.00168796      -2.16928178
I        1.87347551       3.78054794      16.75847416        2      -0.01178457      -0.00000000       0.00168796      -2.16928178
I        6.75501038       3.78054794      14.06925174        2      -0.01178457       0.00000000      -0.00168797      -2.16928178
I        7.88959422       1.26018265       3.79334311        2       0.01178457       0.00000000      -0.00168797      -2.16928178
I        0.38893936       1.26018265      12.52193850        3      -0.00448573      -0.00000000       0.00104377      -2.36195441
I        4.49259551       3.78054794       2.24602987        3       0.00448573      -0.00000000       0.00104377      -2.36195441
I        9.37413037       3.78054794       8.02987877        3       0.00448573       0.00000000      -0.00104377      -2.36195441
I        5.27047422       1.26018265      18.30578740        3      -0.00448573       0.00000000      -0.00104377      -2.36195441
