20
Lattice="10.494506022762327 -1.7910962565788895e-14 -1.7617419383425575e-11 -3.256241202364057e-14 4.907340284127363 6.730652599559458e-13 -1.925012326710316e-11 -5.035017100796794e-12 26.88724463304256" Properties=species:S:1:pos:R:3:spacegroup_kinds:I:1:forces:R:3:energies:R:1 spacegroup="P n m a" unit_cell=conventional energy=-54.623435662077554 stress="-0.00039921757098965345 -3.674263026209334e-15 -1.6073899174616527e-12 -3.674263026209334e-15 0.00026927329017251367 2.1491288510814598e-13 -1.6073899174616527e-12 2.1491288510814598e-13 2.5558009475199842e-05" free_energy=-54.623435662077554 pbc="T T T"
Cs       4.02904375       1.22683507      20.79344898        0       0.00778816      -0.00000000      -0.00002437      -3.27788054
Cs       1.21820926       3.68050521       7.34982667        0      -0.00778816      -0.00000000      -0.00002437      -3.27788054
Cs       6.46546228       3.68050521       6.09379565        0      -0.00778816       0.00000000       0.00002437      -3.27788054
Cs       9.27629676       1.22683507      19.53741797        0       0.00778816       0.00000000       0.00002437      -3.27788054
Pb       2.98792007       1.22683507      11.08385461        1       0.01683026       0.00000000       0.00111904      -3.97040029
Pb       2.25933295       3.68050521      24.52747692        1      -0.01683026       0.00000000       0.00111904      -3.97040029
Pb       7.50658596       3.68050521      15.80339003        1      -0.01683027      -0.00000000      -0.00111904      -3.97040029
Pb       8.23517308       1.22683507       2.35976771        1       0.01683027       0.00000000      -0.00111904      -3.97040029
I        4.16466244       1.22683507       7.99991282        2      -0.00723311      -0.00000000      -0.00721676      -2.26280641
I        1.08259057       3.68050521      21.44353514        2       0.00723311      -0.00000000      -0.00721676      -2.26280641
I        6.32984358       3.68050521      18.88733181        2       0.00723311       0.00000000       0.00721676      -2.26280640
I        9.41191545       1.22683507       5.44370950        2      -0.00723311      -0.00000000       0.00721676      -2.26280640
I        2.80172294       1.22683507      -0.55209280        3      -0.01454120      -0.00000000       0.01307997      -2.07615159
I        2.44553007       3.68050521      12.89152952        3       0.01454120      -0.00000000       0.01307997      -2.07615159
I        7.69278308       3.68050521      27.43933743        3       0.01454120      -0.00000000      -0.01307998      -2.07615159
I        8.04897596       1.22683507      13.99571511        3      -0.01454120       0.00000000      -0.01307998      -2.07615159
I        0.23552207       1.22683507      10.06344816        4      -0.02648436       0.00000000       0.00633201      -2.06862010
I        5.01173094       3.68050521      23.50707048        4       0.02648436      -0.00000000       0.00633201      -2.06862010
I       10.25898395       3.68050521      16.82379647        4       0.02648437      -0.00000000      -0.00633201      -2.06862010
I        5.48277508       1.22683507       3.38017416        4      -0.02648437      -0.00000000      -0.00633201      -2.06862010
