
  ___ ___ ___ _ _ _  
 |   |   |_  | | | | 
 | | | | | . | | | | 
 |__ |  _|___|_____|  25.7.0
 |___|_|             

User:   buyer@DESKTOP-3EQA59H
Date:   Tue Jul 14 00:38:31 2026
Arch:   x86_64
Pid:    6531
CWD:    /home/buyer
Python: 3.11.15
gpaw:   /home/buyer/miniconda3/envs/dft/lib/python3.11/site-packages/gpaw
_gpaw:  /home/buyer/miniconda3/envs/dft/lib/python3.11/site-packages/
        _gpaw.cpython-311-x86_64-linux-gnu.so
ase:    /home/buyer/miniconda3/envs/dft/lib/python3.11/site-packages/ase (version 3.29.0)
numpy:  /home/buyer/miniconda3/envs/dft/lib/python3.11/site-packages/numpy (version 2.4.6)
scipy:  /home/buyer/miniconda3/envs/dft/lib/python3.11/site-packages/scipy (version 1.17.1)
libxc:  7.0.0
units:  Angstrom and eV
cores: 1
OpenMP: True
OMP_NUM_THREADS: 1

Input parameters:
  kpts: [8 8 8]
  mode: {ecut: 500.0,
         name: pw}
  xc: PBE

System changes: positions, numbers, cell, pbc, initial_charges, initial_magmoms 

Initialize ...

species:
  Si:
    name: Silicon
    id: ee77bee481871cc2cb65ac61239ccafa
    Z: 14.0
    valence: 4
    core: 10
    charge: 0.0
    file: /home/buyer/miniconda3/envs/dft/lib/python3.11/site-packages/gpaw_data/setups/Si.PBE.gz
    compensation charges: {type: gauss,
                           rc: 0.33,
                           lmax: 2}
    cutoffs: {filter: 1.86,
              core: 2.06}
    projectors:
      #              energy  rcut
      - 3s(2.00)   -10.812   1.058
      - 3p(2.00)    -4.081   1.058
      -  s          16.399   1.058
      -  p          23.130   1.058
      -  d           0.000   1.058
  
    # Using partial waves for Si as LCAO basis

Reference energy: -63090.754002  # eV

Spin-paired calculation

Convergence criteria:
 Maximum [total energy] change in last 3 cyles: 0.0005 eV / valence electron
 Maximum integral of absolute [dens]ity change: 0.0001 electrons / valence electron
 Maximum integral of absolute [eigenst]ate change: 4e-08 eV^2 / valence electron
 Maximum number of scf [iter]ations: 333
 (Square brackets indicate name in SCF output, whereas a 'c' in
 the SCF output indicates the quantity has converged.)

Symmetries present (total): 1

  ( 1  0  0)
  ( 0  1  0)
  ( 0  0  1)

512 k-points: 8 x 8 x 8 Monkhorst-Pack grid
256 k-points in the irreducible part of the Brillouin zone
       k-points in crystal coordinates                weights
   0:     0.06250000   -0.43750000   -0.43750000          2/512
   1:     0.06250000   -0.43750000   -0.31250000          2/512
   2:     0.06250000   -0.43750000   -0.18750000          2/512
   3:     0.06250000   -0.43750000   -0.06250000          2/512
   4:     0.06250000   -0.43750000    0.06250000          2/512
   5:     0.06250000   -0.43750000    0.18750000          2/512
   6:     0.06250000   -0.43750000    0.31250000          2/512
   7:     0.06250000   -0.43750000    0.43750000          2/512
   8:     0.06250000   -0.31250000   -0.43750000          2/512
   9:     0.06250000   -0.31250000   -0.31250000          2/512
          ...
 255:     0.43750000    0.43750000    0.43750000          2/512

Wave functions: Plane wave expansion
  Cutoff energy: 500.000 eV
  Number of coefficients (min, max): 4145, 4191
  Pulay-stress correction: 0.000000 eV/Ang^3 (de/decut=0.000000)
  Using FFTW library
  ScaLapack parameters: grid=1x1, blocksize=None
  Wavefunction extrapolation:
    Improved wavefunction reuse through dual PAW basis 

Occupation numbers: Fermi-Dirac:
  width: 0.1000  # eV
 

Eigensolver
   Davidson(niter=2) 

Densities:
  Coarse grid: 30*30*30 grid
  Fine grid: 60*60*60 grid
  Total Charge: 0.000000 

Density mixing:
  Method: separate
  Backend: pulay
  Linear mixing parameter: 0.05
  old densities: 5
  Damping of long wavelength oscillations: 50 

Hamiltonian:
  XC and Coulomb potentials evaluated on a 60*60*60 grid
  Using the PBE Exchange-Correlation functional
  External potential:
    NoExternalPotential
 

XC parameters: PBE with 2 nearest neighbor stencil

Memory estimate:
  Process memory now: 174.09 MiB
  Calculator: 551.42 MiB
    Density: 11.82 MiB
      Arrays: 5.36 MiB
      Localized functions: 4.41 MiB
      Mixer: 2.06 MiB
    Hamiltonian: 3.59 MiB
      Arrays: 3.50 MiB
      XC: 0.00 MiB
      Poisson: 0.00 MiB
      vbar: 0.09 MiB
    Wavefunctions: 536.00 MiB
      Arrays psit_nG: 392.91 MiB
      Eigensolver: 1.94 MiB
      Projections: 9.75 MiB
      Projectors: 114.00 MiB
      PW-descriptor: 17.40 MiB

Total number of cores used: 1

Number of atoms: 8
Number of atomic orbitals: 32
Number of bands in calculation: 24
Number of valence electrons: 32
Bands to converge: occupied

... initialized

Initializing position-dependent things.

Density initialized from atomic densities
Creating initial wave functions:
  24 bands from LCAO basis set

    Si-----------.  
   /|            |  
  / | Si         |  
 *  |     Si     |  
 |  |       Si   |  
 | Si            |  
 |  |        Si  |  
 |  .------------.  
 | / Si         /   
 |/      Si    /    
 *------------*     

Atomic positions and initial magnetic moments

Positions:
   0 Si     0.005148   -0.018170   -0.007570    ( 0.0000,  0.0000,  0.0000)
   1 Si     1.358302    1.386161    1.360740    ( 0.0000,  0.0000,  0.0000)
   2 Si     0.009964    2.778204    2.763257    ( 0.0000,  0.0000,  0.0000)
   3 Si     1.360216    4.100071    4.116106    ( 0.0000,  0.0000,  0.0000)
   4 Si     2.704627   -0.017242    2.747858    ( 0.0000,  0.0000,  0.0000)
   5 Si     4.104514    1.407703    4.094631    ( 0.0000,  0.0000,  0.0000)
   6 Si     2.717063    2.720208    0.000281    ( 0.0000,  0.0000,  0.0000)
   7 Si     4.103783    4.151607    1.361018    ( 0.0000,  0.0000,  0.0000)

Unit cell:
           periodic     x           y           z      points  spacing
  1. axis:    yes    5.476000    0.000000    0.000000    30     0.1825
  2. axis:    yes    0.000000    5.476000    0.000000    30     0.1825
  3. axis:    yes    0.000000    0.000000    5.476000    30     0.1825

  Lengths:   5.476000   5.476000   5.476000
  Angles:   90.000000  90.000000  90.000000

Effective grid spacing dv^(1/3) = 0.1825

     iter     time        total  log10-change:
                         energy   eigst   dens
iter:   1 00:39:29   -43.430670
iter:   2 00:40:16   -43.450879   -1.86  -0.81
iter:   3 00:41:03   -43.505272   -1.42  -0.81
iter:   4 00:41:52   -43.298148   -3.09  -1.01
iter:   5 00:42:21   -43.269248   -4.13  -1.24
iter:   6 00:42:51   -43.134857   -2.55  -1.30
iter:   7 00:43:26   -43.137334   -4.36  -2.66
iter:   8 00:43:56   -43.134759c  -4.19  -2.14
iter:   9 00:44:23   -43.134735c  -5.31  -3.19
iter:  10 00:44:52   -43.134840c  -5.15  -3.35
iter:  11 00:45:20   -43.134734c  -5.36  -3.03
iter:  12 00:45:45   -43.134727c  -7.22  -3.40
iter:  13 00:46:13   -43.134724c  -8.13c -3.53
iter:  14 00:46:41   -43.134763c  -5.55  -3.59
iter:  15 00:47:05   -43.134727c  -5.48  -3.31
iter:  16 00:47:29   -43.134719c  -6.91  -3.70
iter:  17 00:47:59   -43.134719c  -7.56c -4.27c

Converged after 17 iterations.

Dipole moment: (-0.491980, 1.199951, 0.171777) |e|*Ang

Energy contributions relative to reference atoms: (reference = -63090.754002)

Kinetic:        +53.020900
Potential:      -47.330925
External:        +0.000000
XC:             -48.729898
Entropy (-ST):   -0.002968
Local:           -0.093312
SIC:             +0.000000
--------------------------
Free energy:    -43.136203
Extrapolated:   -43.134719

Showing only first 2 kpts
 Kpt  Band  Eigenvalues  Occupancy
  0    14      3.67916    2.00000
  0    15      4.07184    2.00000
  0    16      7.17606    0.00000
  0    17      7.74432    0.00000

  1    14      3.45234    2.00000
  1    15      4.13021    1.99999
  1    16      7.16631    0.00000
  1    17      7.83098    0.00000


Fermi level: 5.39342

Gap: 0.658 eV
Transition (v -> c):
  (s=0, k=35, n=15, [0.06, 0.06, -0.06]) -> (s=0, k=28, n=16, [0.06, -0.06, 0.06])
Direct/indirect transitions are different
Direct gap: 0.682 eV
Transition at: (s=0, k=27, n=15, [0.06, -0.06, -0.06])

Forces in eV/Ang:
  0 Si   -0.17809    0.63272   -0.09321
  1 Si   -0.17486   -0.27231    0.30762
  2 Si   -0.30539   -0.19188   -0.59606
  3 Si    0.21283    0.03118    0.16966
  4 Si    0.28704    0.53099   -0.09820
  5 Si   -0.03322   -0.56114    0.05193
  6 Si    0.37926    0.37730    0.12157
  7 Si   -0.18754   -0.54676    0.13645

Timing:                              incl.     excl.
-----------------------------------------------------------
Forces:                              1.935     1.935   0.3% |
Hamiltonian:                         0.244     0.001   0.0% |
 Atomic:                             0.128     0.001   0.0% |
  XC Correction:                     0.127     0.127   0.0% |
 Calculate atomic Hamiltonians:      0.021     0.021   0.0% |
 Communicate:                        0.000     0.000   0.0% |
 Initialize Hamiltonian:             0.000     0.000   0.0% |
 Poisson:                            0.001     0.001   0.0% |
 XC 3D grid:                         0.093     0.093   0.0% |
LCAO initialization:                30.584     0.011   0.0% |
 LCAO eigensolver:                   1.010     0.007   0.0% |
  Calculate projections:             0.016     0.016   0.0% |
  DenseAtomicCorrection:             0.061     0.061   0.0% |
  Distribute overlap matrix:         0.004     0.004   0.0% |
  Orbital Layouts:                   0.555     0.555   0.1% |
  Potential matrix:                  0.165     0.165   0.0% |
  Sum over cells:                    0.202     0.202   0.0% |
 LCAO to grid:                      27.318    27.318   4.8% |-|
 Set positions (LCAO WFS):           2.245     0.229   0.0% |
  Basic WFS set positions:           0.000     0.000   0.0% |
  Basis functions set positions:     0.000     0.000   0.0% |
  P tci:                             1.396     1.396   0.2% |
  ST tci:                            0.610     0.610   0.1% |
  mktci:                             0.010     0.010   0.0% |
PWDescriptor:                        0.226     0.226   0.0% |
SCF-cycle:                         536.250     0.569   0.1% |
 Davidson:                         510.400   105.530  18.5% |------|
  Apply H:                          71.622    69.602  12.2% |----|
   HMM T:                            2.020     2.020   0.4% |
  Subspace diag:                    95.304     0.390   0.1% |
   calc_h_matrix:                   78.398     6.458   1.1% |
    Apply H:                        71.940    69.650  12.2% |----|
     HMM T:                          2.289     2.289   0.4% |
   diagonalize:                      1.283     1.283   0.2% |
   rotate_psi:                      15.233    15.233   2.7% ||
  calc. matrices:                  172.379    29.297   5.1% |-|
   Apply H:                        143.082   138.733  24.3% |---------|
    HMM T:                           4.350     4.350   0.8% |
  diagonalize:                      37.044    37.044   6.5% |--|
  rotate_psi:                       28.521    28.521   5.0% |-|
 Density:                           20.787     0.000   0.0% |
  Atomic density matrices:           0.333     0.333   0.1% |
  Mix:                               0.556     0.556   0.1% |
  Multipole moments:                 0.002     0.002   0.0% |
  Pseudo density:                   19.895    19.895   3.5% ||
   Symmetrize density:               0.000     0.000   0.0% |
 Hamiltonian:                        3.094     0.014   0.0% |
  Atomic:                            2.101     0.012   0.0% |
   XC Correction:                    2.089     2.089   0.4% |
  Calculate atomic Hamiltonians:     0.260     0.260   0.0% |
  Communicate:                       0.000     0.000   0.0% |
  Poisson:                           0.020     0.020   0.0% |
  XC 3D grid:                        0.699     0.699   0.1% |
 Orthonormalize:                     1.400     0.019   0.0% |
  calc_s_matrix:                     0.207     0.207   0.0% |
  inverse-cholesky:                  0.038     0.038   0.0% |
  projections:                       0.902     0.902   0.2% |
  rotate_psi_s:                      0.235     0.235   0.0% |
Set symmetry:                        0.005     0.005   0.0% |
Other:                               1.171     1.171   0.2% |
-----------------------------------------------------------
Total:                                       570.415 100.0%

Memory usage: 928.54 MiB
Date: Tue Jul 14 00:48:01 2026
