
  ___ ___ ___ _ _ _  
 |   |   |_  | | | | 
 | | | | | . | | | | 
 |__ |  _|___|_____|  25.7.0
 |___|_|             

User:   buyer@DESKTOP-3EQA59H
Date:   Tue Jul 14 00:48:01 2026
Arch:   x86_64
Pid:    6531
CWD:    /home/buyer
Python: 3.11.15
gpaw:   /home/buyer/miniconda3/envs/dft/lib/python3.11/site-packages/gpaw
_gpaw:  /home/buyer/miniconda3/envs/dft/lib/python3.11/site-packages/
        _gpaw.cpython-311-x86_64-linux-gnu.so
ase:    /home/buyer/miniconda3/envs/dft/lib/python3.11/site-packages/ase (version 3.29.0)
numpy:  /home/buyer/miniconda3/envs/dft/lib/python3.11/site-packages/numpy (version 2.4.6)
scipy:  /home/buyer/miniconda3/envs/dft/lib/python3.11/site-packages/scipy (version 1.17.1)
libxc:  7.0.0
units:  Angstrom and eV
cores: 1
OpenMP: True
OMP_NUM_THREADS: 1

Input parameters:
  kpts: [6 6 6]
  mode: {ecut: 600.0,
         name: pw}
  xc: PBE

System changes: positions, numbers, cell, pbc, initial_charges, initial_magmoms 

Initialize ...

species:
  Cs:
    name: Caesium
    id: fa822afd343f47335d508b9ee4f394c3
    Z: 55.0
    valence: 9
    core: 46
    charge: 0.0
    file: /home/buyer/miniconda3/envs/dft/lib/python3.11/site-packages/gpaw_data/setups/Cs.PBE.gz
    compensation charges: {type: gauss,
                           rc: 0.33,
                           lmax: 2}
    cutoffs: {filter: 2.06,
              core: 2.51}
    projectors:
      #              energy  rcut
      - 5s(2.00)   -26.706   1.164
      - 6s(1.00)    -2.085   1.164
      - 5p(6.00)   -13.523   1.058
      -  p          13.688   1.058
      -  d           0.000   1.058
  
    # Using partial waves for Cs as LCAO basis

  Pb:
    name: Lead
    id: 66e73b13d76dc837202bcdb13fee58e6
    Z: 82.0
    valence: 14
    core: 68
    charge: 0.0
    file: /home/buyer/miniconda3/envs/dft/lib/python3.11/site-packages/gpaw_data/setups/Pb.PBE.gz
    compensation charges: {type: gauss,
                           rc: 0.38,
                           lmax: 2}
    cutoffs: {filter: 2.36,
              core: 2.43}
    projectors:
      #              energy  rcut
      - 6s(2.00)   -11.969   1.259
      - 6p(2.00)    -3.506   1.275
      - 5d(10.00)   -21.211   1.217
      -  s          15.243   1.259
      -  p          23.705   1.275
      -  d           6.001   1.217
  
    # Using partial waves for Pb as LCAO basis

  I:
    name: Iodine
    id: 91405a398e4dfe788ff04f57531604ec
    Z: 53.0
    valence: 7
    core: 46
    charge: 0.0
    file: /home/buyer/miniconda3/envs/dft/lib/python3.11/site-packages/gpaw_data/setups/I.PBE.gz
    compensation charges: {type: gauss,
                           rc: 0.37,
                           lmax: 2}
    cutoffs: {filter: 2.06,
              core: 2.90}
    projectors:
      #              energy  rcut
      - 5s(2.00)   -17.382   1.164
      - 5p(5.00)    -7.088   1.164
      -  s           9.829   1.164
      -  p          20.123   1.164
      -  d           0.000   1.164
  
    # Using partial waves for I as LCAO basis

Reference energy: -1359696.926849  # eV

Spin-paired calculation

Convergence criteria:
 Maximum [total energy] change in last 3 cyles: 0.0005 eV / valence electron
 Maximum integral of absolute [dens]ity change: 0.0001 electrons / valence electron
 Maximum integral of absolute [eigenst]ate change: 4e-08 eV^2 / valence electron
 Maximum number of scf [iter]ations: 333
 (Square brackets indicate name in SCF output, whereas a 'c' in
 the SCF output indicates the quantity has converged.)

Symmetries present (total): 1

  ( 1  0  0)
  ( 0  1  0)
  ( 0  0  1)

216 k-points: 6 x 6 x 6 Monkhorst-Pack grid
108 k-points in the irreducible part of the Brillouin zone
       k-points in crystal coordinates                weights
   0:     0.08333333   -0.41666667   -0.41666667          2/216
   1:     0.08333333   -0.41666667   -0.25000000          2/216
   2:     0.08333333   -0.41666667   -0.08333333          2/216
   3:     0.08333333   -0.41666667    0.08333333          2/216
   4:     0.08333333   -0.41666667    0.25000000          2/216
   5:     0.08333333   -0.41666667    0.41666667          2/216
   6:     0.08333333   -0.25000000   -0.41666667          2/216
   7:     0.08333333   -0.25000000   -0.25000000          2/216
   8:     0.08333333   -0.25000000   -0.08333333          2/216
   9:     0.08333333   -0.25000000    0.08333333          2/216
          ...
 107:     0.41666667    0.41666667    0.41666667          2/216

Wave functions: Plane wave expansion
  Cutoff energy: 600.000 eV
  Number of coefficients (min, max): 8692, 8725
  Pulay-stress correction: 0.000000 eV/Ang^3 (de/decut=0.000000)
  Using FFTW library
  ScaLapack parameters: grid=1x1, blocksize=None
  Wavefunction extrapolation:
    Improved wavefunction reuse through dual PAW basis 

Occupation numbers: Fermi-Dirac:
  width: 0.1000  # eV
 

Eigensolver
   Davidson(niter=2) 

Densities:
  Coarse grid: 40*40*40 grid
  Fine grid: 80*80*80 grid
  Total Charge: 0.000000 

Density mixing:
  Method: separate
  Backend: pulay
  Linear mixing parameter: 0.05
  old densities: 5
  Damping of long wavelength oscillations: 50 

Hamiltonian:
  XC and Coulomb potentials evaluated on a 80*80*80 grid
  Using the PBE Exchange-Correlation functional
  External potential:
    NoExternalPotential
 

XC parameters: PBE with 2 nearest neighbor stencil

Memory estimate:
  Process memory now: 928.54 MiB
  Calculator: 617.43 MiB
    Density: 31.48 MiB
      Arrays: 12.70 MiB
      Localized functions: 13.90 MiB
      Mixer: 4.88 MiB
    Hamiltonian: 8.68 MiB
      Arrays: 8.30 MiB
      XC: 0.00 MiB
      Poisson: 0.00 MiB
      vbar: 0.37 MiB
    Wavefunctions: 577.28 MiB
      Arrays psit_nG: 373.84 MiB
      Eigensolver: 4.23 MiB
      Projections: 3.00 MiB
      Projectors: 179.39 MiB
      PW-descriptor: 16.82 MiB

Total number of cores used: 1

Number of atoms: 5
Number of atomic orbitals: 26
Number of bands in calculation: 26
Number of valence electrons: 44
Bands to converge: occupied

... initialized

Initializing position-dependent things.

Density initialized from atomic densities
Creating initial wave functions:
  26 bands from LCAO basis set

     Cs--------------.  
    /|               |  
   / |               |  
  /  |               |  
 *   |      I        |  
 |   |               |  
 |   |     Pb      I |  
 |   |               |  
 |   .---------------.  
 |  /       I       /   
 | /               /    
 |/               /     
 *---------------*      

Atomic positions and initial magnetic moments

Positions:
   0 Cs     0.051480   -0.181696   -0.075701    ( 0.0000,  0.0000,  0.0000)
   1 Pb     3.088017    3.366615    3.112398    ( 0.0000,  0.0000,  0.0000)
   2 I      3.294638    3.597040    0.252572    ( 0.0000,  0.0000,  0.0000)
   3 I     -0.087843    3.125712    3.286064    ( 0.0000,  0.0000,  0.0000)
   4 I      2.861267   -0.172417    3.293582    ( 0.0000,  0.0000,  0.0000)

Unit cell:
           periodic     x           y           z      points  spacing
  1. axis:    yes    6.390000    0.000000    0.000000    40     0.1597
  2. axis:    yes    0.000000    6.390000    0.000000    40     0.1597
  3. axis:    yes    0.000000    0.000000    6.390000    40     0.1597

  Lengths:   6.390000   6.390000   6.390000
  Angles:   90.000000  90.000000  90.000000

Effective grid spacing dv^(1/3) = 0.1597

     iter     time        total  log10-change:
                         energy   eigst   dens
iter:   1 00:48:36   -14.340555
iter:   2 00:48:58   -14.287564   -1.35  -1.30
iter:   3 00:49:21   -14.047553   -2.04  -1.35
iter:   4 00:49:43   -14.010327   -1.96  -1.53
iter:   5 00:50:05   -13.995093   -2.74  -1.73
iter:   6 00:50:26   -13.993778c  -3.75  -2.18
iter:   7 00:50:48   -13.989511c  -3.53  -2.30
iter:   8 00:51:10   -13.989731c  -4.09  -2.44
iter:   9 00:51:31   -13.989637c  -5.02  -2.93
iter:  10 00:51:53   -13.989595c  -5.33  -2.98
iter:  11 00:52:14   -13.989648c  -5.20  -3.11
iter:  12 00:52:35   -13.989648c  -6.09  -3.35
iter:  13 00:52:57   -13.989634c  -5.94  -3.41
iter:  14 00:53:19   -13.989631c  -6.49  -3.58
iter:  15 00:53:40   -13.989630c  -7.20  -3.67
iter:  16 00:54:02   -13.989624c  -6.59  -3.72
iter:  17 00:54:23   -13.989623c  -7.22  -4.10c
iter:  18 00:54:45   -13.989623c  -7.38  -4.26c
iter:  19 00:55:07   -13.989623c  -7.96c -4.42c

Converged after 19 iterations.

Dipole moment: (0.951202, 20.900672, -5.695499) |e|*Ang

Energy contributions relative to reference atoms: (reference = -1359696.926849)

Kinetic:        +34.076066
Potential:      -33.582080
External:        +0.000000
XC:             -14.367587
Entropy (-ST):   -0.000007
Local:           -0.116018
SIC:             +0.000000
--------------------------
Free energy:    -13.989626
Extrapolated:   -13.989623

Showing only first 2 kpts
 Kpt  Band  Eigenvalues  Occupancy
  0    20      1.08133    2.00000
  0    21      1.35140    2.00000
  0    22      4.49920    0.00000
  0    23      4.65587    0.00000

  1    20      0.91015    2.00000
  1    21      1.27782    2.00000
  1    22      4.66300    0.00000
  1    23      5.65344    0.00000


Fermi level: 2.82635

Gap: 2.103 eV
Transition (v -> c):
  (s=0, k=102, n=21, [0.42, 0.42, -0.42]) -> (s=0, k=72, n=22, [0.42, -0.42, -0.42])
Direct/indirect transitions are different
Direct gap: 2.115 eV
Transition at: (s=0, k=72, n=21, [0.42, -0.42, -0.42])

Forces in eV/Ang:
  0 Cs    0.00087    0.00130    0.00343
  1 Pb    0.03983   -0.87906    0.71469
  2 I     0.01206   -0.08064   -0.91302
  3 I    -0.03096   -0.06071    0.05763
  4 I    -0.02205    1.01885    0.13692

Timing:                              incl.     excl.
-----------------------------------------------------------
Forces:                              1.023     1.023   0.2% |
Hamiltonian:                         0.231     0.001   0.0% |
 Atomic:                             0.114     0.000   0.0% |
  XC Correction:                     0.113     0.113   0.0% |
 Calculate atomic Hamiltonians:      0.012     0.012   0.0% |
 Communicate:                        0.000     0.000   0.0% |
 Initialize Hamiltonian:             0.000     0.000   0.0% |
 Poisson:                            0.001     0.001   0.0% |
 XC 3D grid:                         0.103     0.103   0.0% |
LCAO initialization:                12.241     0.084   0.0% |
 LCAO eigensolver:                   0.757     0.002   0.0% |
  Calculate projections:             0.005     0.005   0.0% |
  DenseAtomicCorrection:             0.014     0.014   0.0% |
  Distribute overlap matrix:         0.001     0.001   0.0% |
  Orbital Layouts:                   0.461     0.461   0.1% |
  Potential matrix:                  0.089     0.089   0.0% |
  Sum over cells:                    0.183     0.183   0.0% |
 LCAO to grid:                      11.072    11.072   2.6% ||
 Set positions (LCAO WFS):           0.328     0.029   0.0% |
  Basic WFS set positions:           0.000     0.000   0.0% |
  Basis functions set positions:     0.000     0.000   0.0% |
  P tci:                             0.226     0.226   0.1% |
  ST tci:                            0.071     0.071   0.0% |
  mktci:                             0.003     0.003   0.0% |
PWDescriptor:                        0.263     0.263   0.1% |
SCF-cycle:                         411.988     0.159   0.0% |
 Davidson:                         385.260    51.094  12.0% |----|
  Apply H:                          71.365    69.980  16.4% |------|
   HMM T:                            1.385     1.385   0.3% |
  Subspace diag:                    79.064     0.167   0.0% |
   calc_h_matrix:                   73.920     2.656   0.6% |
    Apply H:                        71.264    69.628  16.3% |------|
     HMM T:                          1.636     1.636   0.4% |
   diagonalize:                      0.633     0.633   0.1% |
   rotate_psi:                       4.345     4.345   1.0% |
  calc. matrices:                  162.551    19.074   4.5% |-|
   Apply H:                        143.476   140.174  32.8% |------------|
    HMM T:                           3.303     3.303   0.8% |
  diagonalize:                      13.790    13.790   3.2% ||
  rotate_psi:                        7.395     7.395   1.7% ||
 Density:                           21.711     0.001   0.0% |
  Atomic density matrices:           0.099     0.099   0.0% |
  Mix:                               0.547     0.547   0.1% |
  Multipole moments:                 0.001     0.001   0.0% |
  Pseudo density:                   21.063    21.062   4.9% |-|
   Symmetrize density:               0.000     0.000   0.0% |
 Hamiltonian:                        4.009     0.025   0.0% |
  Atomic:                            1.996     0.008   0.0% |
   XC Correction:                    1.988     1.988   0.5% |
  Calculate atomic Hamiltonians:     0.221     0.221   0.1% |
  Communicate:                       0.000     0.000   0.0% |
  Poisson:                           0.024     0.024   0.0% |
  XC 3D grid:                        1.743     1.743   0.4% |
 Orthonormalize:                     0.850     0.008   0.0% |
  calc_s_matrix:                     0.170     0.170   0.0% |
  inverse-cholesky:                  0.014     0.014   0.0% |
  projections:                       0.523     0.523   0.1% |
  rotate_psi_s:                      0.134     0.134   0.0% |
Set symmetry:                        0.002     0.002   0.0% |
Other:                               1.275     1.275   0.3% |
-----------------------------------------------------------
Total:                                       427.024 100.0%

Memory usage: 958.39 MiB
Date: Tue Jul 14 00:55:08 2026
