
  ___ ___ ___ _ _ _  
 |   |   |_  | | | | 
 | | | | | . | | | | 
 |__ |  _|___|_____|  25.7.0
 |___|_|             

User:   buyer@DESKTOP-3EQA59H
Date:   Sun Jul 12 02:02:42 2026
Arch:   x86_64
Pid:    1559
CWD:    /mnt/c/Users/Buyer/dft-si
Python: 3.11.15
gpaw:   /home/buyer/miniconda3/envs/dft/lib/python3.11/site-packages/gpaw
_gpaw:  /home/buyer/miniconda3/envs/dft/lib/python3.11/site-packages/
        _gpaw.cpython-311-x86_64-linux-gnu.so
ase:    /home/buyer/miniconda3/envs/dft/lib/python3.11/site-packages/ase (version 3.29.0)
numpy:  /home/buyer/miniconda3/envs/dft/lib/python3.11/site-packages/numpy (version 2.4.6)
scipy:  /home/buyer/miniconda3/envs/dft/lib/python3.11/site-packages/scipy (version 1.17.1)
libxc:  7.0.0
units:  Angstrom and eV
cores: 1
OpenMP: True
OMP_NUM_THREADS: 1

Input parameters:
  kpts: [6 6 6]
  mode: {ecut: 900.0000000000001,
         name: pw}
  xc: PBE

System changes: positions, numbers, cell, pbc, initial_charges, initial_magmoms 

Initialize ...

species:
  Sr:
    name: Strontium
    id: 1681cef0785a8ddd65899c0215808a0d
    Z: 38.0
    valence: 10
    core: 28
    charge: 0.0
    file: /home/buyer/miniconda3/envs/dft/lib/python3.11/site-packages/gpaw_data/setups/Sr.PBE.gz
    compensation charges: {type: gauss,
                           rc: 0.40,
                           lmax: 2}
    cutoffs: {filter: 2.39,
              core: 1.85}
    projectors:
      #              energy  rcut
      - 4s(2.00)   -40.883   1.291
      - 5s(2.00)    -3.525   1.291
      - 4p(6.00)   -22.826   1.291
      -  p           4.386   1.291
      -  d           0.000   1.254
  
    # Using partial waves for Sr as LCAO basis

  Ti:
    name: Titanium
    id: d282db07e62ae71292040bf25b25ccdd
    Z: 22.0
    valence: 12
    core: 10
    charge: 0.0
    file: /home/buyer/miniconda3/envs/dft/lib/python3.11/site-packages/gpaw_data/setups/Ti.PBE.gz
    compensation charges: {type: gauss,
                           rc: 0.38,
                           lmax: 2}
    cutoffs: {filter: 2.23,
              core: 1.02}
    projectors:
      #              energy  rcut
      - 3s(2.00)   -62.623   1.270
      - 4s(2.00)    -4.466   1.270
      - 3p(6.00)   -38.862   1.058
      - 4p(0.00)    -1.466   1.058
      - 3d(2.00)    -4.258   1.058
      -  d          22.953   1.058
  
    # Using partial waves for Ti as LCAO basis

  O:
    name: Oxygen
    id: 32ecd46bf208036f09c70b0ec9a88b78
    Z: 8.0
    valence: 6
    core: 2
    charge: 0.0
    file: /home/buyer/miniconda3/envs/dft/lib/python3.11/site-packages/gpaw_data/setups/O.PBE.gz
    compensation charges: {type: gauss,
                           rc: 0.21,
                           lmax: 2}
    cutoffs: {filter: 1.17,
              core: 0.83}
    projectors:
      #              energy  rcut
      - 2s(2.00)   -23.961   0.688
      - 2p(4.00)    -9.029   0.598
      -  s           3.251   0.688
      -  p          18.182   0.598
      -  d           0.000   0.619
  
    # Using partial waves for O as LCAO basis

Reference energy: -115843.341193  # eV

Spin-paired calculation

Convergence criteria:
 Maximum [total energy] change in last 3 cyles: 0.0005 eV / valence electron
 Maximum integral of absolute [dens]ity change: 0.0001 electrons / valence electron
 Maximum integral of absolute [eigenst]ate change: 4e-08 eV^2 / valence electron
 Maximum number of scf [iter]ations: 333
 (Square brackets indicate name in SCF output, whereas a 'c' in
 the SCF output indicates the quantity has converged.)

Symmetries present (total): 1

  ( 1  0  0)
  ( 0  1  0)
  ( 0  0  1)

216 k-points: 6 x 6 x 6 Monkhorst-Pack grid
108 k-points in the irreducible part of the Brillouin zone
       k-points in crystal coordinates                weights
   0:     0.08333333   -0.41666667   -0.41666667          2/216
   1:     0.08333333   -0.41666667   -0.25000000          2/216
   2:     0.08333333   -0.41666667   -0.08333333          2/216
   3:     0.08333333   -0.41666667    0.08333333          2/216
   4:     0.08333333   -0.41666667    0.25000000          2/216
   5:     0.08333333   -0.41666667    0.41666667          2/216
   6:     0.08333333   -0.25000000   -0.41666667          2/216
   7:     0.08333333   -0.25000000   -0.25000000          2/216
   8:     0.08333333   -0.25000000   -0.08333333          2/216
   9:     0.08333333   -0.25000000    0.08333333          2/216
          ...
 107:     0.41666667    0.41666667    0.41666667          2/216

Wave functions: Plane wave expansion
  Cutoff energy: 900.000 eV
  Number of coefficients (min, max): 3749, 3791
  Pulay-stress correction: 0.000000 eV/Ang^3 (de/decut=0.000000)
  Using FFTW library
  ScaLapack parameters: grid=1x1, blocksize=None
  Wavefunction extrapolation:
    Improved wavefunction reuse through dual PAW basis 

Occupation numbers: Fermi-Dirac:
  width: 0.1000  # eV
 

Eigensolver
   Davidson(niter=2) 

Densities:
  Coarse grid: 28*28*28 grid
  Fine grid: 56*56*56 grid
  Total Charge: 0.000000 

Density mixing:
  Method: separate
  Backend: pulay
  Linear mixing parameter: 0.05
  old densities: 5
  Damping of long wavelength oscillations: 50 

Hamiltonian:
  XC and Coulomb potentials evaluated on a 56*56*56 grid
  Using the PBE Exchange-Correlation functional
  External potential:
    NoExternalPotential
 

XC parameters: PBE with 2 nearest neighbor stencil

Memory estimate:
  Process memory now: 921.45 MiB
  Calculator: 279.81 MiB
    Density: 12.03 MiB
      Arrays: 4.35 MiB
      Localized functions: 6.00 MiB
      Mixer: 1.67 MiB
    Hamiltonian: 3.01 MiB
      Arrays: 2.85 MiB
      XC: 0.00 MiB
      Poisson: 0.00 MiB
      vbar: 0.16 MiB
    Wavefunctions: 264.77 MiB
      Arrays psit_nG: 174.93 MiB
      Eigensolver: 2.03 MiB
      Projections: 3.23 MiB
      Projectors: 77.50 MiB
      PW-descriptor: 7.08 MiB

Total number of cores used: 1

Number of atoms: 5
Number of atomic orbitals: 30
Number of bands in calculation: 28
Number of valence electrons: 40
Bands to converge: occupied

... initialized

Initializing position-dependent things.

Density initialized from atomic densities
Creating initial wave functions:
  28 bands from LCAO basis set

   .---------.  
  /|   O     |  
 * |         |  
 | |    O    |  
 |O|   Ti    |  
 | Sr--------.  
 |/         /   
 *---------*    

Atomic positions and initial magnetic moments

Positions:
   0 Sr     0.024836   -0.006913    0.032384    ( 0.0000,  0.0000,  0.0000)
   1 Ti     2.048201    1.960342    1.960343    ( 0.0000,  0.0000,  0.0000)
   2 O      2.051011    2.010422   -0.023474    ( 0.0000,  0.0000,  0.0000)
   3 O      0.027128    1.948879    1.948764    ( 0.0000,  0.0000,  0.0000)
   4 O      1.984148   -0.095664    1.885804    ( 0.0000,  0.0000,  0.0000)

Unit cell:
           periodic     x           y           z      points  spacing
  1. axis:    yes    3.944100    0.000000    0.000000    28     0.1409
  2. axis:    yes    0.000000    3.944100    0.000000    28     0.1409
  3. axis:    yes    0.000000    0.000000    3.944100    28     0.1409

  Lengths:   3.944100   3.944100   3.944100
  Angles:   90.000000  90.000000  90.000000

Effective grid spacing dv^(1/3) = 0.1409

     iter     time        total  log10-change:
                         energy   eigst   dens
iter:   1 02:03:12   -45.037402
iter:   2 02:03:22   -43.256378   -0.87  -0.95
iter:   3 02:03:32   -39.596302   -0.71  -1.02
iter:   4 02:03:43   -39.639945   -2.14  -1.39
iter:   5 02:03:54   -39.690717   -1.63  -1.42
iter:   6 02:04:04   -39.620656   -1.98  -1.94
iter:   7 02:04:14   -39.595854   -2.62  -2.13
iter:   8 02:04:23   -39.586924   -2.71  -2.30
iter:   9 02:04:33   -39.585271c  -4.33  -2.81
iter:  10 02:04:43   -39.584904c  -4.05  -2.85
iter:  11 02:04:54   -39.584645c  -4.77  -3.11
iter:  12 02:05:04   -39.584614c  -5.79  -3.29
iter:  13 02:05:14   -39.584605c  -4.69  -3.35
iter:  14 02:05:23   -39.584615c  -5.61  -3.64
iter:  15 02:05:33   -39.584588c  -6.34  -3.76
iter:  16 02:05:44   -39.584584c  -6.94  -3.88
iter:  17 02:05:55   -39.584580c  -6.57  -3.92
iter:  18 02:06:05   -39.584579c  -7.16  -4.02c
iter:  19 02:06:15   -39.584582c  -6.51  -4.03c
iter:  20 02:06:25   -39.584581c  -7.09  -4.38c
iter:  21 02:06:35   -39.584581c  -8.23c -4.63c

Converged after 21 iterations.

Dipole moment: (-1.586234, 3.291527, 0.050117) |e|*Ang

Energy contributions relative to reference atoms: (reference = -115843.341193)

Kinetic:        +40.861315
Potential:      -44.131637
External:        +0.000000
XC:             -36.921043
Entropy (-ST):   -0.000011
Local:           +0.606790
SIC:             +0.000000
--------------------------
Free energy:    -39.584586
Extrapolated:   -39.584581

Showing only first 2 kpts
 Kpt  Band  Eigenvalues  Occupancy
  0    18      4.87321    2.00000
  0    19      6.07490    1.99999
  0    20      9.85318    0.00000
  0    21      9.90464    0.00000

  1    18      5.06404    2.00000
  1    19      5.63261    2.00000
  1    20      9.22644    0.00000
  1    21      9.86338    0.00000


Fermi level: 7.28201

Gap: 2.222 eV
Transition (v -> c):
  (s=0, k=107, n=19, [0.42, 0.42, 0.42]) -> (s=0, k=15, n=20, [0.08, -0.08, 0.08])
Direct/indirect transitions are different
Direct gap: 2.683 eV
Transition at: (s=0, k=15, n=19, [0.08, -0.08, 0.08])

Forces in eV/Ang:
  0 Sr    0.13097   -0.12159   -0.13241
  1 Ti   -0.08514    0.12193    0.14374
  2 O    -0.19200   -0.64051   -0.29103
  3 O     0.12531   -0.42951    0.03572
  4 O     0.02193    1.07094    0.24496

Timing:                              incl.     excl.
-----------------------------------------------------------
Forces:                              0.561     0.561   0.2% |
Hamiltonian:                         0.130     0.000   0.0% |
 Atomic:                             0.088     0.001   0.0% |
  XC Correction:                     0.088     0.088   0.0% |
 Calculate atomic Hamiltonians:      0.011     0.011   0.0% |
 Communicate:                        0.000     0.000   0.0% |
 Initialize Hamiltonian:             0.000     0.000   0.0% |
 Poisson:                            0.000     0.000   0.0% |
 XC 3D grid:                         0.029     0.029   0.0% |
LCAO initialization:                18.385     0.114   0.0% |
 LCAO eigensolver:                   0.861     0.002   0.0% |
  Calculate projections:             0.005     0.005   0.0% |
  DenseAtomicCorrection:             0.015     0.015   0.0% |
  Distribute overlap matrix:         0.002     0.002   0.0% |
  Orbital Layouts:                   0.060     0.060   0.0% |
  Potential matrix:                  0.720     0.720   0.3% |
  Sum over cells:                    0.056     0.056   0.0% |
 LCAO to grid:                      16.692    16.692   7.1% |--|
 Set positions (LCAO WFS):           0.718     0.104   0.0% |
  Basic WFS set positions:           0.000     0.000   0.0% |
  Basis functions set positions:     0.000     0.000   0.0% |
  P tci:                             0.315     0.315   0.1% |
  ST tci:                            0.292     0.292   0.1% |
  mktci:                             0.007     0.007   0.0% |
PWDescriptor:                        0.096     0.096   0.0% |
SCF-cycle:                         213.920     0.245   0.1% |
 Davidson:                         200.100    29.426  12.6% |----|
  Apply H:                          33.932    32.904  14.1% |-----|
   HMM T:                            1.027     1.027   0.4% |
  Subspace diag:                    39.792     0.174   0.1% |
   calc_h_matrix:                   36.188     1.981   0.8% |
    Apply H:                        34.208    33.064  14.1% |-----|
     HMM T:                          1.144     1.144   0.5% |
   diagonalize:                      0.753     0.753   0.3% |
   rotate_psi:                       2.677     2.677   1.1% |
  calc. matrices:                   80.815    12.615   5.4% |-|
   Apply H:                         68.200    65.925  28.2% |----------|
    HMM T:                           2.275     2.275   1.0% |
  diagonalize:                      11.893    11.893   5.1% |-|
  rotate_psi:                        4.243     4.243   1.8% ||
 Density:                           10.452     0.000   0.0% |
  Atomic density matrices:           0.120     0.120   0.1% |
  Mix:                               0.272     0.272   0.1% |
  Multipole moments:                 0.002     0.002   0.0% |
  Pseudo density:                   10.058    10.058   4.3% |-|
   Symmetrize density:               0.000     0.000   0.0% |
 Hamiltonian:                        2.606     0.011   0.0% |
  Atomic:                            1.813     0.012   0.0% |
   XC Correction:                    1.801     1.801   0.8% |
  Calculate atomic Hamiltonians:     0.179     0.179   0.1% |
  Communicate:                       0.000     0.000   0.0% |
  Poisson:                           0.012     0.012   0.0% |
  XC 3D grid:                        0.590     0.590   0.3% |
 Orthonormalize:                     0.518     0.008   0.0% |
  calc_s_matrix:                     0.095     0.095   0.0% |
  inverse-cholesky:                  0.015     0.015   0.0% |
  projections:                       0.297     0.297   0.1% |
  rotate_psi_s:                      0.103     0.103   0.0% |
Set symmetry:                        0.003     0.003   0.0% |
Other:                               0.578     0.578   0.2% |
-----------------------------------------------------------
Total:                                       233.672 100.0%

Memory usage: 921.45 MiB
Date: Sun Jul 12 02:06:35 2026
