
  ___ ___ ___ _ _ _  
 |   |   |_  | | | | 
 | | | | | . | | | | 
 |__ |  _|___|_____|  25.7.0
 |___|_|             

User:   buyer@DESKTOP-3EQA59H
Date:   Tue Jul 14 00:55:08 2026
Arch:   x86_64
Pid:    6531
CWD:    /home/buyer
Python: 3.11.15
gpaw:   /home/buyer/miniconda3/envs/dft/lib/python3.11/site-packages/gpaw
_gpaw:  /home/buyer/miniconda3/envs/dft/lib/python3.11/site-packages/
        _gpaw.cpython-311-x86_64-linux-gnu.so
ase:    /home/buyer/miniconda3/envs/dft/lib/python3.11/site-packages/ase (version 3.29.0)
numpy:  /home/buyer/miniconda3/envs/dft/lib/python3.11/site-packages/numpy (version 2.4.6)
scipy:  /home/buyer/miniconda3/envs/dft/lib/python3.11/site-packages/scipy (version 1.17.1)
libxc:  7.0.0
units:  Angstrom and eV
cores: 1
OpenMP: True
OMP_NUM_THREADS: 1

Input parameters:
  kpts: [8 8 8]
  mode: {ecut: 600.0,
         name: pw}
  xc: PBE

System changes: positions, numbers, cell, pbc, initial_charges, initial_magmoms 

Initialize ...

species:
  Si:
    name: Silicon
    id: ee77bee481871cc2cb65ac61239ccafa
    Z: 14.0
    valence: 4
    core: 10
    charge: 0.0
    file: /home/buyer/miniconda3/envs/dft/lib/python3.11/site-packages/gpaw_data/setups/Si.PBE.gz
    compensation charges: {type: gauss,
                           rc: 0.33,
                           lmax: 2}
    cutoffs: {filter: 1.86,
              core: 2.06}
    projectors:
      #              energy  rcut
      - 3s(2.00)   -10.812   1.058
      - 3p(2.00)    -4.081   1.058
      -  s          16.399   1.058
      -  p          23.130   1.058
      -  d           0.000   1.058
  
    # Using partial waves for Si as LCAO basis

Reference energy: -63090.754002  # eV

Spin-paired calculation

Convergence criteria:
 Maximum [total energy] change in last 3 cyles: 0.0005 eV / valence electron
 Maximum integral of absolute [dens]ity change: 0.0001 electrons / valence electron
 Maximum integral of absolute [eigenst]ate change: 4e-08 eV^2 / valence electron
 Maximum number of scf [iter]ations: 333
 (Square brackets indicate name in SCF output, whereas a 'c' in
 the SCF output indicates the quantity has converged.)

Symmetries present (total): 1

  ( 1  0  0)
  ( 0  1  0)
  ( 0  0  1)

512 k-points: 8 x 8 x 8 Monkhorst-Pack grid
256 k-points in the irreducible part of the Brillouin zone
       k-points in crystal coordinates                weights
   0:     0.06250000   -0.43750000   -0.43750000          2/512
   1:     0.06250000   -0.43750000   -0.31250000          2/512
   2:     0.06250000   -0.43750000   -0.18750000          2/512
   3:     0.06250000   -0.43750000   -0.06250000          2/512
   4:     0.06250000   -0.43750000    0.06250000          2/512
   5:     0.06250000   -0.43750000    0.18750000          2/512
   6:     0.06250000   -0.43750000    0.31250000          2/512
   7:     0.06250000   -0.43750000    0.43750000          2/512
   8:     0.06250000   -0.31250000   -0.43750000          2/512
   9:     0.06250000   -0.31250000   -0.31250000          2/512
          ...
 255:     0.43750000    0.43750000    0.43750000          2/512

Wave functions: Plane wave expansion
  Cutoff energy: 600.000 eV
  Number of coefficients (min, max): 5457, 5509
  Pulay-stress correction: 0.000000 eV/Ang^3 (de/decut=0.000000)
  Using FFTW library
  ScaLapack parameters: grid=1x1, blocksize=None
  Wavefunction extrapolation:
    Improved wavefunction reuse through dual PAW basis 

Occupation numbers: Fermi-Dirac:
  width: 0.1000  # eV
 

Eigensolver
   Davidson(niter=2) 

Densities:
  Coarse grid: 32*32*32 grid
  Fine grid: 64*64*64 grid
  Total Charge: 0.000000 

Density mixing:
  Method: separate
  Backend: pulay
  Linear mixing parameter: 0.05
  old densities: 5
  Damping of long wavelength oscillations: 50 

Hamiltonian:
  XC and Coulomb potentials evaluated on a 64*64*64 grid
  Using the PBE Exchange-Correlation functional
  External potential:
    NoExternalPotential
 

XC parameters: PBE with 2 nearest neighbor stencil

Memory estimate:
  Process memory now: 958.39 MiB
  Calculator: 720.51 MiB
    Density: 14.79 MiB
      Arrays: 6.50 MiB
      Localized functions: 5.79 MiB
      Mixer: 2.50 MiB
    Hamiltonian: 4.37 MiB
      Arrays: 4.25 MiB
      XC: 0.00 MiB
      Poisson: 0.00 MiB
      vbar: 0.12 MiB
    Wavefunctions: 701.35 MiB
      Arrays psit_nG: 516.47 MiB
      Eigensolver: 2.53 MiB
      Projections: 9.75 MiB
      Projectors: 149.83 MiB
      PW-descriptor: 22.77 MiB

Total number of cores used: 1

Number of atoms: 8
Number of atomic orbitals: 32
Number of bands in calculation: 24
Number of valence electrons: 32
Bands to converge: occupied

... initialized

Initializing position-dependent things.

Density initialized from atomic densities
Creating initial wave functions:
  24 bands from LCAO basis set

    .------------.  
   /|            |  
  / |            |  
 *  |  Si        |  
 |  |     SSi    |  
 | Si            |  
 |  |        Si  |  
 |  Si-----------.  
 | / Si  Si     /   
 |/            /    
 *------------*     

Atomic positions and initial magnetic moments

Positions:
   0 Si     0.024836   -0.006913    0.032384    ( 0.0000,  0.0000,  0.0000)
   1 Si     1.445151    1.357292    1.357293    ( 0.0000,  0.0000,  0.0000)
   2 Si     0.078961    2.776372    2.714526    ( 0.0000,  0.0000,  0.0000)
   3 Si     1.396128    4.083829    4.083714    ( 0.0000,  0.0000,  0.0000)
   4 Si     2.750098   -0.095664    2.651754    ( 0.0000,  0.0000,  0.0000)
   5 Si     4.078886    1.318358    4.122712    ( 0.0000,  0.0000,  0.0000)
   6 Si     2.692599    2.667385    0.073282    ( 0.0000,  0.0000,  0.0000)
   7 Si     4.095711    4.110376    1.297763    ( 0.0000,  0.0000,  0.0000)

Unit cell:
           periodic     x           y           z      points  spacing
  1. axis:    yes    5.476000    0.000000    0.000000    32     0.1711
  2. axis:    yes    0.000000    5.476000    0.000000    32     0.1711
  3. axis:    yes    0.000000    0.000000    5.476000    32     0.1711

  Lengths:   5.476000   5.476000   5.476000
  Angles:   90.000000  90.000000  90.000000

Effective grid spacing dv^(1/3) = 0.1711

     iter     time        total  log10-change:
                         energy   eigst   dens
iter:   1 00:56:21   -43.140561
iter:   2 00:56:59   -43.160808   -1.84  -0.81
iter:   3 00:57:27   -43.061815   -1.50  -0.82
iter:   4 00:57:48   -42.997380   -2.98  -1.19
iter:   5 00:58:08   -43.025143   -3.61  -1.27
iter:   6 00:58:28   -42.839109   -2.45  -1.26
iter:   7 00:58:48   -42.837524   -3.95  -1.94
iter:   8 00:59:08   -42.833721c  -4.02  -2.05
iter:   9 00:59:28   -42.834408c  -4.12  -2.74
iter:  10 00:59:50   -42.833708c  -5.24  -2.57
iter:  11 01:00:12   -42.833481c  -4.93  -2.86
iter:  12 01:00:32   -42.833479c  -7.03  -3.68
iter:  13 01:00:54   -42.833480c  -7.26  -3.77
iter:  14 01:01:14   -42.833487c  -6.26  -3.79
iter:  15 01:01:33   -42.833484c  -7.70c -3.61
iter:  16 01:01:54   -42.833484c  -9.32c -3.75
iter:  17 01:02:15   -42.833480c  -6.86  -3.75
iter:  18 01:02:34   -42.833480c  -7.66c -4.22c

Converged after 18 iterations.

Dipole moment: (-2.740673, 2.582908, -3.144094) |e|*Ang

Energy contributions relative to reference atoms: (reference = -63090.754002)

Kinetic:        +54.536122
Potential:      -48.424110
External:        +0.000000
XC:             -48.846995
Entropy (-ST):   -0.004344
Local:           -0.096325
SIC:             +0.000000
--------------------------
Free energy:    -42.835651
Extrapolated:   -42.833480

Showing only first 2 kpts
 Kpt  Band  Eigenvalues  Occupancy
  0    14      3.67162    2.00000
  0    15      4.19612    1.99998
  0    16      7.08924    0.00000
  0    17      7.71719    0.00000

  1    14      3.44256    2.00000
  1    15      4.20849    1.99997
  1    16      7.09032    0.00000
  1    17      7.78802    0.00000


Fermi level: 5.33729

Gap: 0.444 eV
Transition (v -> c):
  (s=0, k=36, n=15, [0.06, 0.06, 0.06]) -> (s=0, k=28, n=16, [0.06, -0.06, 0.06])
Direct/indirect transitions are different
Direct gap: 0.473 eV
Transition at: (s=0, k=36, n=15, [0.06, 0.06, 0.06])

Forces in eV/Ang:
  0 Si    0.09526    0.18263   -0.81908
  1 Si   -1.33852   -0.68023    0.96928
  2 Si   -1.15671   -0.77774    0.03505
  3 Si    0.03673    0.14042    0.66289
  4 Si    0.17947    0.76821    1.04741
  5 Si    0.42766    0.31523   -0.53323
  6 Si    1.04933    0.88353   -1.71920
  7 Si    0.70682   -0.83212    0.35695

Timing:                              incl.     excl.
-----------------------------------------------------------
Forces:                              2.266     2.266   0.5% |
Hamiltonian:                         0.184     0.001   0.0% |
 Atomic:                             0.122     0.001   0.0% |
  XC Correction:                     0.121     0.121   0.0% |
 Calculate atomic Hamiltonians:      0.016     0.016   0.0% |
 Communicate:                        0.000     0.000   0.0% |
 Initialize Hamiltonian:             0.000     0.000   0.0% |
 Poisson:                            0.001     0.001   0.0% |
 XC 3D grid:                         0.044     0.044   0.0% |
LCAO initialization:                29.111     0.008   0.0% |
 LCAO eigensolver:                   0.402     0.005   0.0% |
  Calculate projections:             0.014     0.014   0.0% |
  DenseAtomicCorrection:             0.049     0.049   0.0% |
  Distribute overlap matrix:         0.003     0.003   0.0% |
  Orbital Layouts:                   0.087     0.087   0.0% |
  Potential matrix:                  0.192     0.192   0.0% |
  Sum over cells:                    0.052     0.052   0.0% |
 LCAO to grid:                      26.626    26.626   5.9% |-|
 Set positions (LCAO WFS):           2.074     0.223   0.0% |
  Basic WFS set positions:           0.000     0.000   0.0% |
  Basis functions set positions:     0.000     0.000   0.0% |
  P tci:                             1.259     1.259   0.3% |
  ST tci:                            0.587     0.587   0.1% |
  mktci:                             0.005     0.005   0.0% |
PWDescriptor:                        0.238     0.238   0.1% |
SCF-cycle:                         415.676     0.456   0.1% |
 Davidson:                         390.877   104.088  23.2% |--------|
  Apply H:                          51.563    49.626  11.1% |---|
   HMM T:                            1.936     1.936   0.4% |
  Subspace diag:                    66.804     0.347   0.1% |
   calc_h_matrix:                   57.034     4.847   1.1% |
    Apply H:                        52.187    49.738  11.1% |---|
     HMM T:                          2.449     2.449   0.5% |
   diagonalize:                      1.221     1.221   0.3% |
   rotate_psi:                       8.201     8.201   1.8% ||
  calc. matrices:                  134.245    29.699   6.6% |--|
   Apply H:                        104.546    99.758  22.2% |--------|
    HMM T:                           4.788     4.788   1.1% |
  diagonalize:                      19.030    19.030   4.2% |-|
  rotate_psi:                       15.147    15.147   3.4% ||
 Density:                           16.518     0.000   0.0% |
  Atomic density matrices:           0.328     0.328   0.1% |
  Mix:                               0.399     0.399   0.1% |
  Multipole moments:                 0.002     0.002   0.0% |
  Pseudo density:                   15.790    15.790   3.5% ||
   Symmetrize density:               0.000     0.000   0.0% |
 Hamiltonian:                        3.136     0.011   0.0% |
  Atomic:                            2.066     0.011   0.0% |
   XC Correction:                    2.055     2.055   0.5% |
  Calculate atomic Hamiltonians:     0.287     0.287   0.1% |
  Communicate:                       0.000     0.000   0.0% |
  Poisson:                           0.014     0.014   0.0% |
  XC 3D grid:                        0.758     0.758   0.2% |
 Orthonormalize:                     4.688     0.033   0.0% |
  calc_s_matrix:                     0.332     0.332   0.1% |
  inverse-cholesky:                  0.040     0.040   0.0% |
  projections:                       3.467     3.467   0.8% |
  rotate_psi_s:                      0.816     0.816   0.2% |
Set symmetry:                        0.005     0.005   0.0% |
Other:                               0.911     0.911   0.2% |
-----------------------------------------------------------
Total:                                       448.391 100.0%

Memory usage: 1.14 GiB
Date: Tue Jul 14 01:02:37 2026
