
  ___ ___ ___ _ _ _  
 |   |   |_  | | | | 
 | | | | | . | | | | 
 |__ |  _|___|_____|  25.7.0
 |___|_|             

User:   buyer@DESKTOP-3EQA59H
Date:   Sun Jul 12 02:06:35 2026
Arch:   x86_64
Pid:    1559
CWD:    /mnt/c/Users/Buyer/dft-si
Python: 3.11.15
gpaw:   /home/buyer/miniconda3/envs/dft/lib/python3.11/site-packages/gpaw
_gpaw:  /home/buyer/miniconda3/envs/dft/lib/python3.11/site-packages/
        _gpaw.cpython-311-x86_64-linux-gnu.so
ase:    /home/buyer/miniconda3/envs/dft/lib/python3.11/site-packages/ase (version 3.29.0)
numpy:  /home/buyer/miniconda3/envs/dft/lib/python3.11/site-packages/numpy (version 2.4.6)
scipy:  /home/buyer/miniconda3/envs/dft/lib/python3.11/site-packages/scipy (version 1.17.1)
libxc:  7.0.0
units:  Angstrom and eV
cores: 1
OpenMP: True
OMP_NUM_THREADS: 1

Input parameters:
  kpts: [6 6 6]
  mode: {ecut: 600.0,
         name: pw}
  xc: PBE

System changes: positions, numbers, cell, pbc, initial_charges, initial_magmoms 

Initialize ...

species:
  Cs:
    name: Caesium
    id: fa822afd343f47335d508b9ee4f394c3
    Z: 55.0
    valence: 9
    core: 46
    charge: 0.0
    file: /home/buyer/miniconda3/envs/dft/lib/python3.11/site-packages/gpaw_data/setups/Cs.PBE.gz
    compensation charges: {type: gauss,
                           rc: 0.33,
                           lmax: 2}
    cutoffs: {filter: 2.06,
              core: 2.51}
    projectors:
      #              energy  rcut
      - 5s(2.00)   -26.706   1.164
      - 6s(1.00)    -2.085   1.164
      - 5p(6.00)   -13.523   1.058
      -  p          13.688   1.058
      -  d           0.000   1.058
  
    # Using partial waves for Cs as LCAO basis

  Pb:
    name: Lead
    id: 66e73b13d76dc837202bcdb13fee58e6
    Z: 82.0
    valence: 14
    core: 68
    charge: 0.0
    file: /home/buyer/miniconda3/envs/dft/lib/python3.11/site-packages/gpaw_data/setups/Pb.PBE.gz
    compensation charges: {type: gauss,
                           rc: 0.38,
                           lmax: 2}
    cutoffs: {filter: 2.36,
              core: 2.43}
    projectors:
      #              energy  rcut
      - 6s(2.00)   -11.969   1.259
      - 6p(2.00)    -3.506   1.275
      - 5d(10.00)   -21.211   1.217
      -  s          15.243   1.259
      -  p          23.705   1.275
      -  d           6.001   1.217
  
    # Using partial waves for Pb as LCAO basis

  I:
    name: Iodine
    id: 91405a398e4dfe788ff04f57531604ec
    Z: 53.0
    valence: 7
    core: 46
    charge: 0.0
    file: /home/buyer/miniconda3/envs/dft/lib/python3.11/site-packages/gpaw_data/setups/I.PBE.gz
    compensation charges: {type: gauss,
                           rc: 0.37,
                           lmax: 2}
    cutoffs: {filter: 2.06,
              core: 2.90}
    projectors:
      #              energy  rcut
      - 5s(2.00)   -17.382   1.164
      - 5p(5.00)    -7.088   1.164
      -  s           9.829   1.164
      -  p          20.123   1.164
      -  d           0.000   1.164
  
    # Using partial waves for I as LCAO basis

Reference energy: -1359696.926849  # eV

Spin-paired calculation

Convergence criteria:
 Maximum [total energy] change in last 3 cyles: 0.0005 eV / valence electron
 Maximum integral of absolute [dens]ity change: 0.0001 electrons / valence electron
 Maximum integral of absolute [eigenst]ate change: 4e-08 eV^2 / valence electron
 Maximum number of scf [iter]ations: 333
 (Square brackets indicate name in SCF output, whereas a 'c' in
 the SCF output indicates the quantity has converged.)

Symmetries present (total): 1

  ( 1  0  0)
  ( 0  1  0)
  ( 0  0  1)

216 k-points: 6 x 6 x 6 Monkhorst-Pack grid
108 k-points in the irreducible part of the Brillouin zone
       k-points in crystal coordinates                weights
   0:     0.08333333   -0.41666667   -0.41666667          2/216
   1:     0.08333333   -0.41666667   -0.25000000          2/216
   2:     0.08333333   -0.41666667   -0.08333333          2/216
   3:     0.08333333   -0.41666667    0.08333333          2/216
   4:     0.08333333   -0.41666667    0.25000000          2/216
   5:     0.08333333   -0.41666667    0.41666667          2/216
   6:     0.08333333   -0.25000000   -0.41666667          2/216
   7:     0.08333333   -0.25000000   -0.25000000          2/216
   8:     0.08333333   -0.25000000   -0.08333333          2/216
   9:     0.08333333   -0.25000000    0.08333333          2/216
          ...
 107:     0.41666667    0.41666667    0.41666667          2/216

Wave functions: Plane wave expansion
  Cutoff energy: 600.000 eV
  Number of coefficients (min, max): 8692, 8725
  Pulay-stress correction: 0.000000 eV/Ang^3 (de/decut=0.000000)
  Using FFTW library
  ScaLapack parameters: grid=1x1, blocksize=None
  Wavefunction extrapolation:
    Improved wavefunction reuse through dual PAW basis 

Occupation numbers: Fermi-Dirac:
  width: 0.1000  # eV
 

Eigensolver
   Davidson(niter=2) 

Densities:
  Coarse grid: 40*40*40 grid
  Fine grid: 80*80*80 grid
  Total Charge: 0.000000 

Density mixing:
  Method: separate
  Backend: pulay
  Linear mixing parameter: 0.05
  old densities: 5
  Damping of long wavelength oscillations: 50 

Hamiltonian:
  XC and Coulomb potentials evaluated on a 80*80*80 grid
  Using the PBE Exchange-Correlation functional
  External potential:
    NoExternalPotential
 

XC parameters: PBE with 2 nearest neighbor stencil

Memory estimate:
  Process memory now: 921.45 MiB
  Calculator: 617.43 MiB
    Density: 31.48 MiB
      Arrays: 12.70 MiB
      Localized functions: 13.90 MiB
      Mixer: 4.88 MiB
    Hamiltonian: 8.68 MiB
      Arrays: 8.30 MiB
      XC: 0.00 MiB
      Poisson: 0.00 MiB
      vbar: 0.37 MiB
    Wavefunctions: 577.28 MiB
      Arrays psit_nG: 373.84 MiB
      Eigensolver: 4.23 MiB
      Projections: 3.00 MiB
      Projectors: 179.39 MiB
      PW-descriptor: 16.82 MiB

Total number of cores used: 1

Number of atoms: 5
Number of atomic orbitals: 26
Number of bands in calculation: 26
Number of valence electrons: 44
Bands to converge: occupied

... initialized

Initializing position-dependent things.

Density initialized from atomic densities
Creating initial wave functions:
  26 bands from LCAO basis set

     .---------------.  
    /|               |  
   / |     I         |  
  /  |               |  
 *   |       I       |  
 |   |               |  
 | I |     Pb        |  
 |   |               |  
 |   Cs--------------.  
 |  /               /   
 | /               /    
 |/               /     
 *---------------*      

Atomic positions and initial magnetic moments

Positions:
   0 Cs     0.024836   -0.006913    0.032384    ( 0.0000,  0.0000,  0.0000)
   1 Pb     3.271151    3.183292    3.183293    ( 0.0000,  0.0000,  0.0000)
   2 I      3.273961    3.233372   -0.023474    ( 0.0000,  0.0000,  0.0000)
   3 I      0.027128    3.171829    3.171714    ( 0.0000,  0.0000,  0.0000)
   4 I      3.207098   -0.095664    3.108754    ( 0.0000,  0.0000,  0.0000)

Unit cell:
           periodic     x           y           z      points  spacing
  1. axis:    yes    6.390000    0.000000    0.000000    40     0.1597
  2. axis:    yes    0.000000    6.390000    0.000000    40     0.1597
  3. axis:    yes    0.000000    0.000000    6.390000    40     0.1597

  Lengths:   6.390000   6.390000   6.390000
  Angles:   90.000000  90.000000  90.000000

Effective grid spacing dv^(1/3) = 0.1597

     iter     time        total  log10-change:
                         energy   eigst   dens
iter:   1 02:07:15   -14.658544
iter:   2 02:07:38   -14.584355   -1.41  -1.29
iter:   3 02:08:01   -14.284137   -1.99  -1.33
iter:   4 02:08:24   -14.240963   -1.93  -1.53
iter:   5 02:08:48   -14.229944   -2.67  -1.73
iter:   6 02:09:13   -14.220922c  -3.64  -2.07
iter:   7 02:09:36   -14.215708c  -3.47  -2.27
iter:   8 02:10:01   -14.216035c  -4.26  -2.48
iter:   9 02:10:24   -14.215963c  -5.27  -3.09
iter:  10 02:10:47   -14.215982c  -5.79  -3.20
iter:  11 02:11:10   -14.215987c  -6.12  -3.10
iter:  12 02:11:34   -14.215991c  -5.19  -3.22
iter:  13 02:11:57   -14.215984c  -6.46  -3.59
iter:  14 02:12:22   -14.215981c  -7.23  -3.73
iter:  15 02:12:46   -14.215978c  -6.56  -3.80
iter:  16 02:13:09   -14.215979c  -7.38  -4.09c
iter:  17 02:13:32   -14.215979c  -8.35c -4.16c

Converged after 17 iterations.

Dipole moment: (-3.454051, 5.800472, -1.132824) |e|*Ang

Energy contributions relative to reference atoms: (reference = -1359696.926849)

Kinetic:        +26.104354
Potential:      -26.969867
External:        +0.000000
XC:             -13.219966
Entropy (-ST):   -0.000010
Local:           -0.130494
SIC:             +0.000000
--------------------------
Free energy:    -14.215983
Extrapolated:   -14.215979

Showing only first 2 kpts
 Kpt  Band  Eigenvalues  Occupancy
  0    20      1.18221    2.00000
  0    21      1.36022    2.00000
  0    22      4.06180    0.00000
  0    23      4.19529    0.00000

  1    20      0.98079    2.00000
  1    21      1.13418    2.00000
  1    22      4.27029    0.00000
  1    23      5.49502    0.00000


Fermi level: 2.65539

Gap: 2.112 eV
Transition (v -> c):
  (s=0, k=107, n=21, [0.42, 0.42, 0.42]) -> (s=0, k=72, n=22, [0.42, -0.42, -0.42])
Direct/indirect transitions are different
Direct gap: 2.113 eV
Transition at: (s=0, k=72, n=21, [0.42, -0.42, -0.42])

Forces in eV/Ang:
  0 Cs   -0.00216   -0.00619    0.00351
  1 Pb   -0.03666   -0.07657    0.00217
  2 I    -0.00746   -0.03574   -0.01145
  3 I     0.05309   -0.02839    0.00123
  4 I    -0.00049    0.15199    0.00888

Timing:                              incl.     excl.
-----------------------------------------------------------
Forces:                              1.189     1.189   0.3% |
Hamiltonian:                         0.235     0.001   0.0% |
 Atomic:                             0.116     0.001   0.0% |
  XC Correction:                     0.115     0.115   0.0% |
 Calculate atomic Hamiltonians:      0.013     0.013   0.0% |
 Communicate:                        0.000     0.000   0.0% |
 Initialize Hamiltonian:             0.000     0.000   0.0% |
 Poisson:                            0.001     0.001   0.0% |
 XC 3D grid:                         0.103     0.103   0.0% |
LCAO initialization:                12.394     0.086   0.0% |
 LCAO eigensolver:                   0.161     0.002   0.0% |
  Calculate projections:             0.004     0.004   0.0% |
  DenseAtomicCorrection:             0.014     0.014   0.0% |
  Distribute overlap matrix:         0.001     0.001   0.0% |
  Orbital Layouts:                   0.033     0.033   0.0% |
  Potential matrix:                  0.091     0.091   0.0% |
  Sum over cells:                    0.016     0.016   0.0% |
 LCAO to grid:                      11.818    11.818   2.8% ||
 Set positions (LCAO WFS):           0.330     0.030   0.0% |
  Basic WFS set positions:           0.000     0.000   0.0% |
  Basis functions set positions:     0.000     0.000   0.0% |
  P tci:                             0.225     0.225   0.1% |
  ST tci:                            0.072     0.072   0.0% |
  mktci:                             0.003     0.003   0.0% |
PWDescriptor:                        0.262     0.262   0.1% |
SCF-cycle:                         402.206     0.191   0.0% |
 Davidson:                         376.403    50.951  12.2% |----|
  Apply H:                          70.239    68.472  16.4% |------|
   HMM T:                            1.768     1.768   0.4% |
  Subspace diag:                    78.249     0.186   0.0% |
   calc_h_matrix:                   73.156     2.803   0.7% |
    Apply H:                        70.352    68.400  16.4% |------|
     HMM T:                          1.952     1.952   0.5% |
   diagonalize:                      0.672     0.672   0.2% |
   rotate_psi:                       4.235     4.235   1.0% |
  calc. matrices:                  159.616    19.027   4.6% |-|
   Apply H:                        140.590   136.829  32.8% |------------|
    HMM T:                           3.761     3.761   0.9% |
  diagonalize:                      10.678    10.678   2.6% ||
  rotate_psi:                        6.670     6.670   1.6% ||
 Density:                           20.661     0.000   0.0% |
  Atomic density matrices:           0.098     0.098   0.0% |
  Mix:                               0.593     0.593   0.1% |
  Multipole moments:                 0.001     0.001   0.0% |
  Pseudo density:                   19.968    19.968   4.8% |-|
   Symmetrize density:               0.000     0.000   0.0% |
 Hamiltonian:                        3.915     0.022   0.0% |
  Atomic:                            1.879     0.008   0.0% |
   XC Correction:                    1.871     1.871   0.4% |
  Calculate atomic Hamiltonians:     0.215     0.215   0.1% |
  Communicate:                       0.000     0.000   0.0% |
  Poisson:                           0.028     0.028   0.0% |
  XC 3D grid:                        1.771     1.771   0.4% |
 Orthonormalize:                     1.036     0.010   0.0% |
  calc_s_matrix:                     0.200     0.200   0.0% |
  inverse-cholesky:                  0.016     0.016   0.0% |
  projections:                       0.642     0.642   0.2% |
  rotate_psi_s:                      0.169     0.169   0.0% |
Set symmetry:                        0.003     0.003   0.0% |
Other:                               1.265     1.265   0.3% |
-----------------------------------------------------------
Total:                                       417.554 100.0%

Memory usage: 971.53 MiB
Date: Sun Jul 12 02:13:33 2026
