
  ___ ___ ___ _ _ _  
 |   |   |_  | | | | 
 | | | | | . | | | | 
 |__ |  _|___|_____|  25.7.0
 |___|_|             

User:   buyer@DESKTOP-3EQA59H
Date:   Sun Jul 12 01:50:33 2026
Arch:   x86_64
Pid:    1559
CWD:    /mnt/c/Users/Buyer/dft-si
Python: 3.11.15
gpaw:   /home/buyer/miniconda3/envs/dft/lib/python3.11/site-packages/gpaw
_gpaw:  /home/buyer/miniconda3/envs/dft/lib/python3.11/site-packages/
        _gpaw.cpython-311-x86_64-linux-gnu.so
ase:    /home/buyer/miniconda3/envs/dft/lib/python3.11/site-packages/ase (version 3.29.0)
numpy:  /home/buyer/miniconda3/envs/dft/lib/python3.11/site-packages/numpy (version 2.4.6)
scipy:  /home/buyer/miniconda3/envs/dft/lib/python3.11/site-packages/scipy (version 1.17.1)
libxc:  7.0.0
units:  Angstrom and eV
cores: 1
OpenMP: True
OMP_NUM_THREADS: 1

Input parameters:
  kpts: [8 8 8]
  mode: {ecut: 500.0,
         name: pw}
  xc: PBE

System changes: positions, numbers, cell, pbc, initial_charges, initial_magmoms 

Initialize ...

species:
  Si:
    name: Silicon
    id: ee77bee481871cc2cb65ac61239ccafa
    Z: 14.0
    valence: 4
    core: 10
    charge: 0.0
    file: /home/buyer/miniconda3/envs/dft/lib/python3.11/site-packages/gpaw_data/setups/Si.PBE.gz
    compensation charges: {type: gauss,
                           rc: 0.33,
                           lmax: 2}
    cutoffs: {filter: 1.86,
              core: 2.06}
    projectors:
      #              energy  rcut
      - 3s(2.00)   -10.812   1.058
      - 3p(2.00)    -4.081   1.058
      -  s          16.399   1.058
      -  p          23.130   1.058
      -  d           0.000   1.058
  
    # Using partial waves for Si as LCAO basis

Reference energy: -63090.754002  # eV

Spin-paired calculation

Convergence criteria:
 Maximum [total energy] change in last 3 cyles: 0.0005 eV / valence electron
 Maximum integral of absolute [dens]ity change: 0.0001 electrons / valence electron
 Maximum integral of absolute [eigenst]ate change: 4e-08 eV^2 / valence electron
 Maximum number of scf [iter]ations: 333
 (Square brackets indicate name in SCF output, whereas a 'c' in
 the SCF output indicates the quantity has converged.)

Symmetries present (total): 1

  ( 1  0  0)
  ( 0  1  0)
  ( 0  0  1)

512 k-points: 8 x 8 x 8 Monkhorst-Pack grid
256 k-points in the irreducible part of the Brillouin zone
       k-points in crystal coordinates                weights
   0:     0.06250000   -0.43750000   -0.43750000          2/512
   1:     0.06250000   -0.43750000   -0.31250000          2/512
   2:     0.06250000   -0.43750000   -0.18750000          2/512
   3:     0.06250000   -0.43750000   -0.06250000          2/512
   4:     0.06250000   -0.43750000    0.06250000          2/512
   5:     0.06250000   -0.43750000    0.18750000          2/512
   6:     0.06250000   -0.43750000    0.31250000          2/512
   7:     0.06250000   -0.43750000    0.43750000          2/512
   8:     0.06250000   -0.31250000   -0.43750000          2/512
   9:     0.06250000   -0.31250000   -0.31250000          2/512
          ...
 255:     0.43750000    0.43750000    0.43750000          2/512

Wave functions: Plane wave expansion
  Cutoff energy: 500.000 eV
  Number of coefficients (min, max): 4145, 4191
  Pulay-stress correction: 0.000000 eV/Ang^3 (de/decut=0.000000)
  Using FFTW library
  ScaLapack parameters: grid=1x1, blocksize=None
  Wavefunction extrapolation:
    Improved wavefunction reuse through dual PAW basis 

Occupation numbers: Fermi-Dirac:
  width: 0.1000  # eV
 

Eigensolver
   Davidson(niter=2) 

Densities:
  Coarse grid: 30*30*30 grid
  Fine grid: 60*60*60 grid
  Total Charge: 0.000000 

Density mixing:
  Method: separate
  Backend: pulay
  Linear mixing parameter: 0.05
  old densities: 5
  Damping of long wavelength oscillations: 50 

Hamiltonian:
  XC and Coulomb potentials evaluated on a 60*60*60 grid
  Using the PBE Exchange-Correlation functional
  External potential:
    NoExternalPotential
 

XC parameters: PBE with 2 nearest neighbor stencil

Memory estimate:
  Process memory now: 173.92 MiB
  Calculator: 551.42 MiB
    Density: 11.82 MiB
      Arrays: 5.36 MiB
      Localized functions: 4.41 MiB
      Mixer: 2.06 MiB
    Hamiltonian: 3.59 MiB
      Arrays: 3.50 MiB
      XC: 0.00 MiB
      Poisson: 0.00 MiB
      vbar: 0.09 MiB
    Wavefunctions: 536.00 MiB
      Arrays psit_nG: 392.91 MiB
      Eigensolver: 1.94 MiB
      Projections: 9.75 MiB
      Projectors: 114.00 MiB
      PW-descriptor: 17.40 MiB

Total number of cores used: 1

Number of atoms: 8
Number of atomic orbitals: 32
Number of bands in calculation: 24
Number of valence electrons: 32
Bands to converge: occupied

... initialized

Initializing position-dependent things.

Density initialized from atomic densities
Creating initial wave functions:
  24 bands from LCAO basis set

    .------------.  
   /|            |  
  / |            |  
 *  |  Si        |  
 |  |     SSi    |  
 | Si            |  
 |  |        Si  |  
 |  Si-----------.  
 | / Si  Si     /   
 |/            /    
 *------------*     

Atomic positions and initial magnetic moments

Positions:
   0 Si     0.024836   -0.006913    0.032384    ( 0.0000,  0.0000,  0.0000)
   1 Si     1.445151    1.357292    1.357293    ( 0.0000,  0.0000,  0.0000)
   2 Si     0.078961    2.776372    2.714526    ( 0.0000,  0.0000,  0.0000)
   3 Si     1.396128    4.083829    4.083714    ( 0.0000,  0.0000,  0.0000)
   4 Si     2.750098   -0.095664    2.651754    ( 0.0000,  0.0000,  0.0000)
   5 Si     4.078886    1.318358    4.122712    ( 0.0000,  0.0000,  0.0000)
   6 Si     2.692599    2.667385    0.073282    ( 0.0000,  0.0000,  0.0000)
   7 Si     4.095711    4.110376    1.297763    ( 0.0000,  0.0000,  0.0000)

Unit cell:
           periodic     x           y           z      points  spacing
  1. axis:    yes    5.476000    0.000000    0.000000    30     0.1825
  2. axis:    yes    0.000000    5.476000    0.000000    30     0.1825
  3. axis:    yes    0.000000    0.000000    5.476000    30     0.1825

  Lengths:   5.476000   5.476000   5.476000
  Angles:   90.000000  90.000000  90.000000

Effective grid spacing dv^(1/3) = 0.1825

     iter     time        total  log10-change:
                         energy   eigst   dens
iter:   1 01:51:42   -43.138871
iter:   2 01:52:15   -43.159129   -1.84  -0.81
iter:   3 01:52:48   -43.070473   -1.49  -0.82
iter:   4 01:53:18   -42.998133   -2.99  -1.18
iter:   5 01:53:44   -43.023643   -3.63  -1.26
iter:   6 01:54:22   -42.837659   -2.45  -1.26
iter:   7 01:55:16   -42.836084   -3.95  -1.93
iter:   8 01:56:10   -42.832137c  -4.00  -2.04
iter:   9 01:56:47   -42.832824c  -4.12  -2.74
iter:  10 01:57:26   -42.832179c  -5.34  -2.57
iter:  11 01:58:10   -42.831897c  -4.86  -2.82
iter:  12 01:58:43   -42.831895c  -6.98  -3.68
iter:  13 01:59:11   -42.831896c  -7.40c -3.78
iter:  14 01:59:37   -42.831908c  -6.09  -3.80
iter:  15 02:00:04   -42.831897c  -6.70  -3.53
iter:  16 02:00:29   -42.831897c  -8.13c -3.90
iter:  17 02:00:56   -42.831896c  -7.76c -3.93
iter:  18 02:01:21   -42.831896c  -7.28  -4.00c
iter:  19 02:01:46   -42.831896c  -7.22  -4.07c
iter:  20 02:02:14   -42.831896c  -7.02  -4.27c
iter:  21 02:02:40   -42.831895c  -7.42c -4.03c

Converged after 21 iterations.

Dipole moment: (-2.740583, 2.583045, -3.143884) |e|*Ang

Energy contributions relative to reference atoms: (reference = -63090.754002)

Kinetic:        +54.570685
Potential:      -48.457255
External:        +0.000000
XC:             -48.849658
Entropy (-ST):   -0.004344
Local:           -0.093495
SIC:             +0.000000
--------------------------
Free energy:    -42.834067
Extrapolated:   -42.831895

Showing only first 2 kpts
 Kpt  Band  Eigenvalues  Occupancy
  0    14      3.67173    2.00000
  0    15      4.19616    1.99998
  0    16      7.08940    0.00000
  0    17      7.71730    0.00000

  1    14      3.44267    2.00000
  1    15      4.20856    1.99997
  1    16      7.09046    0.00000
  1    17      7.78810    0.00000


Fermi level: 5.33741

Gap: 0.444 eV
Transition (v -> c):
  (s=0, k=36, n=15, [0.06, 0.06, 0.06]) -> (s=0, k=28, n=16, [0.06, -0.06, 0.06])
Direct/indirect transitions are different
Direct gap: 0.473 eV
Transition at: (s=0, k=36, n=15, [0.06, 0.06, 0.06])

Forces in eV/Ang:
  0 Si    0.09737    0.18243   -0.81720
  1 Si   -1.33979   -0.68079    0.96990
  2 Si   -1.15790   -0.78047    0.03289
  3 Si    0.03923    0.14108    0.66469
  4 Si    0.17812    0.76952    1.04776
  5 Si    0.42651    0.31713   -0.53480
  6 Si    1.04992    0.88511   -1.71957
  7 Si    0.70650   -0.83403    0.35628

Timing:                              incl.     excl.
-----------------------------------------------------------
Forces:                              2.034     2.034   0.3% |
Hamiltonian:                         0.202     0.001   0.0% |
 Atomic:                             0.128     0.001   0.0% |
  XC Correction:                     0.127     0.127   0.0% |
 Calculate atomic Hamiltonians:      0.023     0.023   0.0% |
 Communicate:                        0.000     0.000   0.0% |
 Initialize Hamiltonian:             0.000     0.000   0.0% |
 Poisson:                            0.001     0.001   0.0% |
 XC 3D grid:                         0.050     0.050   0.0% |
LCAO initialization:                33.260     0.009   0.0% |
 LCAO eigensolver:                   0.480     0.007   0.0% |
  Calculate projections:             0.016     0.016   0.0% |
  DenseAtomicCorrection:             0.056     0.056   0.0% |
  Distribute overlap matrix:         0.004     0.004   0.0% |
  Orbital Layouts:                   0.149     0.149   0.0% |
  Potential matrix:                  0.166     0.166   0.0% |
  Sum over cells:                    0.083     0.083   0.0% |
 LCAO to grid:                      30.474    30.474   4.2% |-|
 Set positions (LCAO WFS):           2.296     0.230   0.0% |
  Basic WFS set positions:           0.000     0.000   0.0% |
  Basis functions set positions:     0.000     0.000   0.0% |
  P tci:                             1.462     1.462   0.2% |
  ST tci:                            0.598     0.598   0.1% |
  mktci:                             0.005     0.005   0.0% |
PWDescriptor:                        0.221     0.221   0.0% |
SCF-cycle:                         692.085     0.635   0.1% |
 Davidson:                         659.219   135.473  18.6% |------|
  Apply H:                          96.294    93.327  12.8% |----|
   HMM T:                            2.968     2.968   0.4% |
  Subspace diag:                   124.175     0.552   0.1% |
   calc_h_matrix:                  104.751     8.240   1.1% |
    Apply H:                        96.511    93.312  12.8% |----|
     HMM T:                          3.199     3.199   0.4% |
   diagonalize:                      1.759     1.759   0.2% |
   rotate_psi:                      17.113    17.113   2.3% ||
  calc. matrices:                  230.554    38.290   5.3% |-|
   Apply H:                        192.264   185.975  25.5% |---------|
    HMM T:                           6.289     6.289   0.9% |
  diagonalize:                      43.030    43.030   5.9% |-|
  rotate_psi:                       29.693    29.693   4.1% |-|
 Density:                           26.597     0.000   0.0% |
  Atomic density matrices:           0.431     0.431   0.1% |
  Mix:                               0.607     0.607   0.1% |
  Multipole moments:                 0.002     0.002   0.0% |
  Pseudo density:                   25.556    25.556   3.5% ||
   Symmetrize density:               0.000     0.000   0.0% |
 Hamiltonian:                        3.986     0.013   0.0% |
  Atomic:                            2.759     0.016   0.0% |
   XC Correction:                    2.743     2.743   0.4% |
  Calculate atomic Hamiltonians:     0.320     0.320   0.0% |
  Communicate:                       0.000     0.000   0.0% |
  Poisson:                           0.014     0.014   0.0% |
  XC 3D grid:                        0.880     0.880   0.1% |
 Orthonormalize:                     1.647     0.029   0.0% |
  calc_s_matrix:                     0.258     0.258   0.0% |
  inverse-cholesky:                  0.037     0.037   0.0% |
  projections:                       0.959     0.959   0.1% |
  rotate_psi_s:                      0.363     0.363   0.0% |
Set symmetry:                        0.006     0.006   0.0% |
Other:                               1.129     1.129   0.2% |
-----------------------------------------------------------
Total:                                       728.936 100.0%

Memory usage: 921.45 MiB
Date: Sun Jul 12 02:02:42 2026
