
  ___ ___ ___ _ _ _  
 |   |   |_  | | | | 
 | | | | | . | | | | 
 |__ |  _|___|_____|  25.7.0
 |___|_|             

User:   buyer@DESKTOP-3EQA59H
Date:   Fri Jul 17 15:15:24 2026
Arch:   x86_64
Pid:    31109
CWD:    /mnt/c/Users/Buyer/dft-si
Python: 3.11.15
gpaw:   /home/buyer/miniconda3/envs/dft/lib/python3.11/site-packages/gpaw
_gpaw:  /home/buyer/miniconda3/envs/dft/lib/python3.11/site-packages/
        _gpaw.cpython-311-x86_64-linux-gnu.so
ase:    /home/buyer/miniconda3/envs/dft/lib/python3.11/site-packages/ase (version 3.29.0)
numpy:  /home/buyer/miniconda3/envs/dft/lib/python3.11/site-packages/numpy (version 2.4.6)
scipy:  /home/buyer/miniconda3/envs/dft/lib/python3.11/site-packages/scipy (version 1.17.1)
libxc:  7.0.0
units:  Angstrom and eV
cores: 1
OpenMP: True
OMP_NUM_THREADS: 1

Input parameters:
  kpts: [2 2 2]
  mode: {ecut: 600.0,
         name: pw}
  xc: PBE

System changes: positions, numbers, cell, pbc, initial_charges, initial_magmoms 

Initialize ...

species:
  Cs:
    name: Caesium
    id: fa822afd343f47335d508b9ee4f394c3
    Z: 55.0
    valence: 9
    core: 46
    charge: 0.0
    file: /home/buyer/miniconda3/envs/dft/lib/python3.11/site-packages/gpaw_data/setups/Cs.PBE.gz
    compensation charges: {type: gauss,
                           rc: 0.33,
                           lmax: 2}
    cutoffs: {filter: 2.06,
              core: 2.51}
    projectors:
      #              energy  rcut
      - 5s(2.00)   -26.706   1.164
      - 6s(1.00)    -2.085   1.164
      - 5p(6.00)   -13.523   1.058
      -  p          13.688   1.058
      -  d           0.000   1.058
  
    # Using partial waves for Cs as LCAO basis

  Pb:
    name: Lead
    id: 66e73b13d76dc837202bcdb13fee58e6
    Z: 82.0
    valence: 14
    core: 68
    charge: 0.0
    file: /home/buyer/miniconda3/envs/dft/lib/python3.11/site-packages/gpaw_data/setups/Pb.PBE.gz
    compensation charges: {type: gauss,
                           rc: 0.38,
                           lmax: 2}
    cutoffs: {filter: 2.36,
              core: 2.43}
    projectors:
      #              energy  rcut
      - 6s(2.00)   -11.969   1.259
      - 6p(2.00)    -3.506   1.275
      - 5d(10.00)   -21.211   1.217
      -  s          15.243   1.259
      -  p          23.705   1.275
      -  d           6.001   1.217
  
    # Using partial waves for Pb as LCAO basis

  I:
    name: Iodine
    id: 91405a398e4dfe788ff04f57531604ec
    Z: 53.0
    valence: 7
    core: 46
    charge: 0.0
    file: /home/buyer/miniconda3/envs/dft/lib/python3.11/site-packages/gpaw_data/setups/I.PBE.gz
    compensation charges: {type: gauss,
                           rc: 0.37,
                           lmax: 2}
    cutoffs: {filter: 2.06,
              core: 2.90}
    projectors:
      #              energy  rcut
      - 5s(2.00)   -17.382   1.164
      - 5p(5.00)    -7.088   1.164
      -  s           9.829   1.164
      -  p          20.123   1.164
      -  d           0.000   1.164
  
    # Using partial waves for I as LCAO basis

Reference energy: -10684034.619125  # eV

Spin-paired calculation

Convergence criteria:
 Maximum [total energy] change in last 3 cyles: 0.0005 eV / valence electron
 Maximum integral of absolute [dens]ity change: 0.0001 electrons / valence electron
 Maximum integral of absolute [eigenst]ate change: 4e-08 eV^2 / valence electron
 Maximum number of scf [iter]ations: 333
 (Square brackets indicate name in SCF output, whereas a 'c' in
 the SCF output indicates the quantity has converged.)

Symmetries present (total): 4

  ( 1  0  0)  ( 1  0  0)  ( 0  1  0)  ( 0  1  0)
  ( 0  1  0)  ( 0  1  0)  ( 1  0  0)  ( 1  0  0)
  ( 0  0  1)  ( 0  0 -1)  ( 0  0  1)  ( 0  0 -1)

8 k-points: 2 x 2 x 2 Monkhorst-Pack grid
2 k-points in the irreducible part of the Brillouin zone
       k-points in crystal coordinates                weights
   0:     0.25000000   -0.25000000    0.25000000          4/8
   1:     0.25000000    0.25000000    0.25000000          4/8

Wave functions: Plane wave expansion
  Cutoff energy: 600.000 eV
  Number of coefficients (min, max): 70369, 70369
  Pulay-stress correction: 0.000000 eV/Ang^3 (de/decut=0.000000)
  Using FFTW library
  ScaLapack parameters: grid=1x1, blocksize=None
  Wavefunction extrapolation:
    Improved wavefunction reuse through dual PAW basis 

Occupation numbers: Fermi-Dirac:
  width: 0.1000  # eV
 

Eigensolver
   Davidson(niter=2) 

Densities:
  Coarse grid: 75*75*75 grid
  Fine grid: 150*150*150 grid
  Total Charge: 0.000000 

Density mixing:
  Method: separate
  Backend: pulay
  Linear mixing parameter: 0.05
  old densities: 5
  Damping of long wavelength oscillations: 50 

Hamiltonian:
  XC and Coulomb potentials evaluated on a 150*150*150 grid
  Using the PBE Exchange-Correlation functional
  External potential:
    NoExternalPotential
 

XC parameters: PBE with 2 nearest neighbor stencil

Memory estimate:
  Process memory now: 2561.78 MiB
  Calculator: 1003.32 MiB
    Density: 228.22 MiB
      Arrays: 83.68 MiB
      Localized functions: 112.35 MiB
      Mixer: 32.19 MiB
    Hamiltonian: 57.75 MiB
      Arrays: 54.72 MiB
      XC: 0.00 MiB
      Poisson: 0.00 MiB
      vbar: 3.04 MiB
    Wavefunctions: 717.35 MiB
      Arrays psit_nG: 438.09 MiB
      Eigensolver: 230.77 MiB
      Projections: 3.41 MiB
      Projectors: 26.84 MiB
      PW-descriptor: 18.24 MiB

Total number of cores used: 1

Number of atoms: 39
Number of atomic orbitals: 204
Number of bands in calculation: 204
Number of valence electrons: 345
Bands to converge: occupied

... initialized

Initializing position-dependent things.

Density initialized from atomic densities
Creating initial wave functions:
  204 bands from LCAO basis set

         .------------------------------.  
        /|                              |  
       / |                              |  
      /  |                              |  
     /   |                      I       |  
    /    |                              |  
   /     |     Pb      I      Pb      I |  
  /      |                              |  
 *       |   I              I           |  
 |       |                              |  
 | I     | Pb  I  I       Pb  I         |  
 |       |                              |  
 |   Cs  I          Cs          I       |  
 |       |                              |  
 |       | I   Pb      I  I   Pb      I |  
 |       |                              |  
 Cs      .---I--Cs-------Cs-I----------Cs  
 |      /                              /   
 | I   /   Pb  I  I       Pb  I       /    
 |    /                              /     
 |   /   I           Cs             /s     
 |  /                              /       
 | /                      I       /        
 |/                              /         
 *------------------------------*          

Atomic positions and initial magnetic moments

Positions:
   0 Cs    -0.210009   -0.210009    0.000000    ( 0.0000,  0.0000,  0.0000)
   1 Pb     3.194980    3.194980    3.225286    ( 0.0000,  0.0000,  0.0000)
   2 I      0.003522    3.194960    3.091386    ( 0.0000,  0.0000,  0.0000)
   3 I      3.194960    0.003522    3.091386    ( 0.0000,  0.0000,  0.0000)
   4 Cs     0.052300    0.052300    6.453900    ( 0.0000,  0.0000,  0.0000)
   5 Pb     3.194980    3.194980    9.682514    ( 0.0000,  0.0000,  0.0000)
   6 I      3.194958    3.194958    6.453900    ( 0.0000,  0.0000,  0.0000)
   7 I      0.003522    3.194960    9.816414    ( 0.0000,  0.0000,  0.0000)
   8 I      3.194960    0.003522    9.816414    ( 0.0000,  0.0000,  0.0000)
   9 Cs    -0.210002    6.600012    0.000000    ( 0.0000,  0.0000,  0.0000)
  10 Pb     3.194980    9.585021    3.217593    ( 0.0000,  0.0000,  0.0000)
  11 I      3.194957    9.585033    0.000000    ( 0.0000,  0.0000,  0.0000)
  12 I     -0.004603    9.585038    3.226257    ( 0.0000,  0.0000,  0.0000)
  13 I      3.194962    6.386488    3.091405    ( 0.0000,  0.0000,  0.0000)
  14 Cs     0.052300    6.337698    6.453900    ( 0.0000,  0.0000,  0.0000)
  15 Pb     3.194980    9.585021    9.690207    ( 0.0000,  0.0000,  0.0000)
  16 I      3.194962    9.585045    6.453900    ( 0.0000,  0.0000,  0.0000)
  17 I     -0.004603    9.585038    9.681543    ( 0.0000,  0.0000,  0.0000)
  18 I      3.194962    6.386488    9.816395    ( 0.0000,  0.0000,  0.0000)
  19 Cs     6.600012   -0.210002    0.000000    ( 0.0000,  0.0000,  0.0000)
  20 Pb     9.585021    3.194980    3.217593    ( 0.0000,  0.0000,  0.0000)
  21 I      9.585033    3.194957    0.000000    ( 0.0000,  0.0000,  0.0000)
  22 I      6.386488    3.194962    3.091405    ( 0.0000,  0.0000,  0.0000)
  23 I      9.585038   -0.004603    3.226257    ( 0.0000,  0.0000,  0.0000)
  24 Cs     6.337698    0.052300    6.453900    ( 0.0000,  0.0000,  0.0000)
  25 Pb     9.585021    3.194980    9.690207    ( 0.0000,  0.0000,  0.0000)
  26 I      9.585045    3.194962    6.453900    ( 0.0000,  0.0000,  0.0000)
  27 I      6.386488    3.194962    9.816395    ( 0.0000,  0.0000,  0.0000)
  28 I      9.585038   -0.004603    9.681543    ( 0.0000,  0.0000,  0.0000)
  29 Cs     6.600005    6.600005    0.000000    ( 0.0000,  0.0000,  0.0000)
  30 Pb     9.585019    9.585019    3.262867    ( 0.0000,  0.0000,  0.0000)
  31 I      9.585033    9.585033    0.000000    ( 0.0000,  0.0000,  0.0000)
  32 I      6.394602    9.585036    3.226260    ( 0.0000,  0.0000,  0.0000)
  33 I      9.585036    6.394602    3.226260    ( 0.0000,  0.0000,  0.0000)
  34 Cs     6.337698    6.337698    6.453900    ( 0.0000,  0.0000,  0.0000)
  35 Pb     9.585019    9.585019    9.644933    ( 0.0000,  0.0000,  0.0000)
  36 I      9.585040    9.585040    6.453900    ( 0.0000,  0.0000,  0.0000)
  37 I      6.394602    9.585036    9.681540    ( 0.0000,  0.0000,  0.0000)
  38 I      9.585036    6.394602    9.681540    ( 0.0000,  0.0000,  0.0000)

Unit cell:
           periodic     x           y           z      points  spacing
  1. axis:    yes   12.780000    0.000000    0.000000    75     0.1704
  2. axis:    yes    0.000000   12.780000    0.000000    75     0.1704
  3. axis:    yes    0.000000    0.000000   12.907800    75     0.1721

  Lengths:  12.780000  12.780000  12.907800
  Angles:   90.000000  90.000000  90.000000

Effective grid spacing dv^(1/3) = 0.1710

     iter     time        total  log10-change:
                         energy   eigst   dens
iter:   1 15:16:35  -113.668606
iter:   2 15:17:04  -113.113835   -1.42  -1.29
iter:   3 15:17:36  -110.853593   -2.01  -1.34
iter:   4 15:18:06  -110.495786   -1.99  -1.53
iter:   5 15:18:35  -110.474747   -2.76  -1.72
iter:   6 15:19:04  -110.409506c  -3.74  -2.08
iter:   7 15:19:34  -110.334645c  -3.42  -2.24
iter:   8 15:20:03  -110.332760c  -4.45  -2.39
iter:   9 15:20:33  -110.336641c  -4.64  -2.68
iter:  10 15:21:01  -110.336100c  -5.04  -2.77
iter:  11 15:21:32  -110.335763c  -6.03  -3.24
iter:  12 15:22:01  -110.335545c  -6.46  -3.27
iter:  13 15:22:34  -110.336653c  -5.99  -3.25
iter:  14 15:23:03  -110.335638c  -6.34  -3.29
iter:  15 15:23:32  -110.336560c  -6.02  -3.23
iter:  16 15:24:01  -110.336588c  -7.47c -3.29
iter:  17 15:24:30  -110.335965c  -5.74  -3.28
iter:  18 15:24:59  -110.335708c  -6.64  -3.53
iter:  19 15:25:28  -110.335969c  -6.31  -3.62
iter:  20 15:25:57  -110.335768c  -6.56  -3.78
iter:  21 15:26:28  -110.335719c  -7.36  -4.27c
iter:  22 15:26:57  -110.335778c  -8.27c -4.45c

Converged after 22 iterations.

Dipole moment: (37.695830, 37.695830, 0.000000) |e|*Ang

Energy contributions relative to reference atoms: (reference = -10684034.619125)

Kinetic:       +185.946673
Potential:     -194.856640
External:        +0.000000
XC:            -100.402081
Entropy (-ST):   -0.177976
Local:           -0.934741
SIC:             +0.000000
--------------------------
Free energy:   -110.424766
Extrapolated:  -110.335778

Showing all kpts
 Kpt  Band  Eigenvalues  Occupancy
  0   170      0.97593    2.00000
  0   171      1.07833    2.00000
  0   172      3.51958    0.93319
  0   173      3.93790    0.02633

  1   170      0.97593    2.00000
  1   171      1.07833    2.00000
  1   172      3.51958    0.93319
  1   173      3.93790    0.02633


Fermi level: 3.50620

Gap: 2.441 eV
Transition (v -> c):
  (s=0, k=0, n=171, [0.25, -0.25, 0.25]) -> (s=0, k=1, n=172, [0.25, 0.25, 0.25])
Direct/indirect transitions are different
Direct gap: 2.441 eV
Transition at: (s=0, k=0, n=171, [0.25, -0.25, 0.25])

Forces in eV/Ang:
  0 Cs    0.00167    0.00167    0.00000
  1 Pb    0.00002    0.00002    0.06741
  2 I     0.00015    0.00001   -0.01462
  3 I     0.00001    0.00015   -0.01462
  4 Cs    0.00561    0.00561    0.00000
  5 Pb    0.00002    0.00002   -0.06741
  6 I     0.00002    0.00002    0.00000
  7 I     0.00015    0.00001    0.01462
  8 I     0.00001    0.00015    0.01462
  9 Cs    0.00167   -0.00166    0.00000
 10 Pb    0.00002   -0.00001   -0.00463
 11 I     0.00001   -0.00001    0.00000
 12 I    -0.00624   -0.00001   -0.01414
 13 I     0.00001   -0.00016   -0.01460
 14 Cs    0.00561   -0.00561    0.00000
 15 Pb    0.00002   -0.00001    0.00463
 16 I     0.00001   -0.00000    0.00000
 17 I    -0.00624   -0.00001    0.01414
 18 I     0.00001   -0.00016    0.01460
 19 Cs   -0.00166    0.00167    0.00000
 20 Pb   -0.00001    0.00002   -0.00463
 21 I    -0.00001    0.00001    0.00000
 22 I    -0.00016    0.00001   -0.01460
 23 I    -0.00001   -0.00624   -0.01414
 24 Cs   -0.00561    0.00561    0.00000
 25 Pb   -0.00001    0.00002    0.00463
 26 I    -0.00000    0.00001    0.00000
 27 I    -0.00016    0.00001    0.01460
 28 I    -0.00001   -0.00624    0.01414
 29 Cs   -0.00166   -0.00166    0.00000
 30 Pb   -0.00002   -0.00002    0.00241
 31 I    -0.00002   -0.00002    0.00000
 32 I     0.00624   -0.00001   -0.01414
 33 I    -0.00001    0.00624   -0.01414
 34 Cs   -0.00561   -0.00561    0.00000
 35 Pb   -0.00002   -0.00002   -0.00241
 36 I    -0.00001   -0.00001    0.00000
 37 I     0.00624   -0.00001    0.01414
 38 I    -0.00001    0.00624    0.01414

Timing:                              incl.     excl.
-----------------------------------------------------------
Forces:                             11.354    11.354   1.6% ||
Hamiltonian:                         2.787     0.009   0.0% |
 Atomic:                             0.914     0.002   0.0% |
  XC Correction:                     0.912     0.912   0.1% |
 Calculate atomic Hamiltonians:      1.151     1.151   0.2% |
 Communicate:                        0.000     0.000   0.0% |
 Initialize Hamiltonian:             0.001     0.001   0.0% |
 Poisson:                            0.012     0.012   0.0% |
 XC 3D grid:                         0.701     0.701   0.1% |
LCAO initialization:                35.037     0.085   0.0% |
 LCAO eigensolver:                   0.712     0.000   0.0% |
  Calculate projections:             0.002     0.002   0.0% |
  DenseAtomicCorrection:             0.010     0.010   0.0% |
  Distribute overlap matrix:         0.001     0.001   0.0% |
  Orbital Layouts:                   0.026     0.026   0.0% |
  Potential matrix:                  0.654     0.654   0.1% |
  Sum over cells:                    0.018     0.018   0.0% |
 LCAO to grid:                      33.847    33.847   4.8% |-|
 Set positions (LCAO WFS):           0.394     0.057   0.0% |
  Basic WFS set positions:           0.002     0.002   0.0% |
  Basis functions set positions:     0.000     0.000   0.0% |
  P tci:                             0.266     0.266   0.0% |
  ST tci:                            0.061     0.061   0.0% |
  mktci:                             0.009     0.009   0.0% |
PWDescriptor:                        0.074     0.074   0.0% |
SCF-cycle:                         650.879     0.047   0.0% |
 Davidson:                         524.708    91.441  13.0% |----|
  Apply H:                          84.215    82.303  11.7% |----|
   HMM T:                            1.913     1.913   0.3% |
  Subspace diag:                   102.914     0.006   0.0% |
   calc_h_matrix:                   92.679     9.474   1.3% ||
    Apply H:                        83.205    81.179  11.5% |----|
     HMM T:                          2.026     2.026   0.3% |
   diagonalize:                      1.084     1.084   0.2% |
   rotate_psi:                       9.145     9.145   1.3% ||
  calc. matrices:                  215.070    45.064   6.4% |--|
   Apply H:                        170.006   166.167  23.6% |--------|
    HMM T:                           3.840     3.840   0.5% |
  diagonalize:                      13.721    13.721   1.9% ||
  rotate_psi:                       17.345    17.345   2.5% ||
 Density:                           68.463     0.000   0.0% |
  Atomic density matrices:           0.088     0.088   0.0% |
  Mix:                              26.037    26.037   3.7% ||
  Multipole moments:                 0.007     0.007   0.0% |
  Pseudo density:                   42.330    40.983   5.8% |-|
   Symmetrize density:               1.347     1.347   0.2% |
 Hamiltonian:                       55.573     0.184   0.0% |
  Atomic:                           19.624     0.047   0.0% |
   XC Correction:                   19.578    19.578   2.8% ||
  Calculate atomic Hamiltonians:    22.151    22.151   3.1% ||
  Communicate:                       0.000     0.000   0.0% |
  Poisson:                           0.226     0.226   0.0% |
  XC 3D grid:                       13.387    13.387   1.9% ||
 Orthonormalize:                     2.088     0.000   0.0% |
  calc_s_matrix:                     0.203     0.203   0.0% |
  inverse-cholesky:                  0.016     0.016   0.0% |
  projections:                       1.479     1.479   0.2% |
  rotate_psi_s:                      0.390     0.390   0.1% |
Set symmetry:                        0.001     0.001   0.0% |
Other:                               4.285     4.285   0.6% |
-----------------------------------------------------------
Total:                                       704.417 100.0%

Memory usage: 2.52 GiB
Date: Fri Jul 17 15:27:09 2026
