
  ___ ___ ___ _ _ _  
 |   |   |_  | | | | 
 | | | | | . | | | | 
 |__ |  _|___|_____|  25.7.0
 |___|_|             

User:   buyer@DESKTOP-3EQA59H
Date:   Fri Jul 17 14:36:23 2026
Arch:   x86_64
Pid:    31109
CWD:    /mnt/c/Users/Buyer/dft-si
Python: 3.11.15
gpaw:   /home/buyer/miniconda3/envs/dft/lib/python3.11/site-packages/gpaw
_gpaw:  /home/buyer/miniconda3/envs/dft/lib/python3.11/site-packages/
        _gpaw.cpython-311-x86_64-linux-gnu.so
ase:    /home/buyer/miniconda3/envs/dft/lib/python3.11/site-packages/ase (version 3.29.0)
numpy:  /home/buyer/miniconda3/envs/dft/lib/python3.11/site-packages/numpy (version 2.4.6)
scipy:  /home/buyer/miniconda3/envs/dft/lib/python3.11/site-packages/scipy (version 1.17.1)
libxc:  7.0.0
units:  Angstrom and eV
cores: 1
OpenMP: True
OMP_NUM_THREADS: 1

Input parameters:
  kpts: [2 2 2]
  mode: {ecut: 600.0,
         name: pw}
  xc: PBE

System changes: positions, numbers, cell, pbc, initial_charges, initial_magmoms 

Initialize ...

species:
  Cs:
    name: Caesium
    id: fa822afd343f47335d508b9ee4f394c3
    Z: 55.0
    valence: 9
    core: 46
    charge: 0.0
    file: /home/buyer/miniconda3/envs/dft/lib/python3.11/site-packages/gpaw_data/setups/Cs.PBE.gz
    compensation charges: {type: gauss,
                           rc: 0.33,
                           lmax: 2}
    cutoffs: {filter: 2.06,
              core: 2.51}
    projectors:
      #              energy  rcut
      - 5s(2.00)   -26.706   1.164
      - 6s(1.00)    -2.085   1.164
      - 5p(6.00)   -13.523   1.058
      -  p          13.688   1.058
      -  d           0.000   1.058
  
    # Using partial waves for Cs as LCAO basis

  Pb:
    name: Lead
    id: 66e73b13d76dc837202bcdb13fee58e6
    Z: 82.0
    valence: 14
    core: 68
    charge: 0.0
    file: /home/buyer/miniconda3/envs/dft/lib/python3.11/site-packages/gpaw_data/setups/Pb.PBE.gz
    compensation charges: {type: gauss,
                           rc: 0.38,
                           lmax: 2}
    cutoffs: {filter: 2.36,
              core: 2.43}
    projectors:
      #              energy  rcut
      - 6s(2.00)   -11.969   1.259
      - 6p(2.00)    -3.506   1.275
      - 5d(10.00)   -21.211   1.217
      -  s          15.243   1.259
      -  p          23.705   1.275
      -  d           6.001   1.217
  
    # Using partial waves for Pb as LCAO basis

  I:
    name: Iodine
    id: 91405a398e4dfe788ff04f57531604ec
    Z: 53.0
    valence: 7
    core: 46
    charge: 0.0
    file: /home/buyer/miniconda3/envs/dft/lib/python3.11/site-packages/gpaw_data/setups/I.PBE.gz
    compensation charges: {type: gauss,
                           rc: 0.37,
                           lmax: 2}
    cutoffs: {filter: 2.06,
              core: 2.90}
    projectors:
      #              energy  rcut
      - 5s(2.00)   -17.382   1.164
      - 5p(5.00)    -7.088   1.164
      -  s           9.829   1.164
      -  p          20.123   1.164
      -  d           0.000   1.164
  
    # Using partial waves for I as LCAO basis

Reference energy: -10684034.619125  # eV

Spin-paired calculation

Convergence criteria:
 Maximum [total energy] change in last 3 cyles: 0.0005 eV / valence electron
 Maximum integral of absolute [dens]ity change: 0.0001 electrons / valence electron
 Maximum integral of absolute [eigenst]ate change: 4e-08 eV^2 / valence electron
 Maximum number of scf [iter]ations: 333
 (Square brackets indicate name in SCF output, whereas a 'c' in
 the SCF output indicates the quantity has converged.)

Symmetries present (total): 4

  ( 1  0  0)  ( 1  0  0)  ( 0  1  0)  ( 0  1  0)
  ( 0  1  0)  ( 0  1  0)  ( 1  0  0)  ( 1  0  0)
  ( 0  0  1)  ( 0  0 -1)  ( 0  0  1)  ( 0  0 -1)

8 k-points: 2 x 2 x 2 Monkhorst-Pack grid
2 k-points in the irreducible part of the Brillouin zone
       k-points in crystal coordinates                weights
   0:     0.25000000   -0.25000000    0.25000000          4/8
   1:     0.25000000    0.25000000    0.25000000          4/8

Wave functions: Plane wave expansion
  Cutoff energy: 600.000 eV
  Number of coefficients (min, max): 69836, 69836
  Pulay-stress correction: 0.000000 eV/Ang^3 (de/decut=0.000000)
  Using FFTW library
  ScaLapack parameters: grid=1x1, blocksize=None
  Wavefunction extrapolation:
    Improved wavefunction reuse through dual PAW basis 

Occupation numbers: Fermi-Dirac:
  width: 0.1000  # eV
 

Eigensolver
   Davidson(niter=2) 

Densities:
  Coarse grid: 75*75*75 grid
  Fine grid: 150*150*150 grid
  Total Charge: 0.000000 

Density mixing:
  Method: separate
  Backend: pulay
  Linear mixing parameter: 0.05
  old densities: 5
  Damping of long wavelength oscillations: 50 

Hamiltonian:
  XC and Coulomb potentials evaluated on a 150*150*150 grid
  Using the PBE Exchange-Correlation functional
  External potential:
    NoExternalPotential
 

XC parameters: PBE with 2 nearest neighbor stencil

Memory estimate:
  Process memory now: 2502.23 MiB
  Calculator: 997.23 MiB
    Density: 227.38 MiB
      Arrays: 83.68 MiB
      Localized functions: 111.51 MiB
      Mixer: 32.19 MiB
    Hamiltonian: 57.73 MiB
      Arrays: 54.72 MiB
      XC: 0.00 MiB
      Poisson: 0.00 MiB
      vbar: 3.01 MiB
    Wavefunctions: 712.11 MiB
      Arrays psit_nG: 434.77 MiB
      Eigensolver: 229.07 MiB
      Projections: 3.41 MiB
      Projectors: 26.64 MiB
      PW-descriptor: 18.22 MiB

Total number of cores used: 1

Number of atoms: 39
Number of atomic orbitals: 204
Number of bands in calculation: 204
Number of valence electrons: 345
Bands to converge: occupied

... initialized

Initializing position-dependent things.

Density initialized from atomic densities
Creating initial wave functions:
  204 bands from LCAO basis set

         .------------------------------.  
        /|                              |  
       / |                              |  
      /  |                              |  
     /   |                      I       |  
    /    |                              |  
   /     |     Pb      I      Pb      I |  
  /      |                              |  
 *       |   I              I           |  
 |       |                              |  
 | I     | Pb  I  I       Pb  I         |  
 |       |                              |  
 |   Cs  I          Cs          I       |  
 |       |                              |  
 |       | I   Pb      I  I   Pb      I |  
 |       |                              |  
 Cs      .---I--Cs-------Cs-I----------Cs  
 |      /                              /   
 | I   /   Pb  I  I       Pb  I       /    
 |    /                              /     
 |   /   I           Cs             /s     
 |  /                              /       
 | /                      I       /        
 |/                              /         
 *------------------------------*          

Atomic positions and initial magnetic moments

Positions:
   0 Cs    -0.210009   -0.210009    0.000000    ( 0.0000,  0.0000,  0.0000)
   1 Pb     3.194980    3.194980    3.201335    ( 0.0000,  0.0000,  0.0000)
   2 I      0.003522    3.194960    3.068430    ( 0.0000,  0.0000,  0.0000)
   3 I      3.194960    0.003522    3.068430    ( 0.0000,  0.0000,  0.0000)
   4 Cs     0.052300    0.052300    6.405975    ( 0.0000,  0.0000,  0.0000)
   5 Pb     3.194980    3.194980    9.610615    ( 0.0000,  0.0000,  0.0000)
   6 I      3.194958    3.194958    6.405975    ( 0.0000,  0.0000,  0.0000)
   7 I      0.003522    3.194960    9.743520    ( 0.0000,  0.0000,  0.0000)
   8 I      3.194960    0.003522    9.743520    ( 0.0000,  0.0000,  0.0000)
   9 Cs    -0.210002    6.600012    0.000000    ( 0.0000,  0.0000,  0.0000)
  10 Pb     3.194980    9.585021    3.193700    ( 0.0000,  0.0000,  0.0000)
  11 I      3.194957    9.585033    0.000000    ( 0.0000,  0.0000,  0.0000)
  12 I     -0.004603    9.585038    3.202300    ( 0.0000,  0.0000,  0.0000)
  13 I      3.194962    6.386488    3.068449    ( 0.0000,  0.0000,  0.0000)
  14 Cs     0.052300    6.337698    6.405975    ( 0.0000,  0.0000,  0.0000)
  15 Pb     3.194980    9.585021    9.618250    ( 0.0000,  0.0000,  0.0000)
  16 I      3.194962    9.585045    6.405975    ( 0.0000,  0.0000,  0.0000)
  17 I     -0.004603    9.585038    9.609650    ( 0.0000,  0.0000,  0.0000)
  18 I      3.194962    6.386488    9.743501    ( 0.0000,  0.0000,  0.0000)
  19 Cs     6.600012   -0.210002    0.000000    ( 0.0000,  0.0000,  0.0000)
  20 Pb     9.585021    3.194980    3.193700    ( 0.0000,  0.0000,  0.0000)
  21 I      9.585033    3.194957    0.000000    ( 0.0000,  0.0000,  0.0000)
  22 I      6.386488    3.194962    3.068449    ( 0.0000,  0.0000,  0.0000)
  23 I      9.585038   -0.004603    3.202300    ( 0.0000,  0.0000,  0.0000)
  24 Cs     6.337698    0.052300    6.405975    ( 0.0000,  0.0000,  0.0000)
  25 Pb     9.585021    3.194980    9.618250    ( 0.0000,  0.0000,  0.0000)
  26 I      9.585045    3.194962    6.405975    ( 0.0000,  0.0000,  0.0000)
  27 I      6.386488    3.194962    9.743501    ( 0.0000,  0.0000,  0.0000)
  28 I      9.585038   -0.004603    9.609650    ( 0.0000,  0.0000,  0.0000)
  29 Cs     6.600005    6.600005    0.000000    ( 0.0000,  0.0000,  0.0000)
  30 Pb     9.585019    9.585019    3.238638    ( 0.0000,  0.0000,  0.0000)
  31 I      9.585033    9.585033    0.000000    ( 0.0000,  0.0000,  0.0000)
  32 I      6.394602    9.585036    3.202302    ( 0.0000,  0.0000,  0.0000)
  33 I      9.585036    6.394602    3.202302    ( 0.0000,  0.0000,  0.0000)
  34 Cs     6.337698    6.337698    6.405975    ( 0.0000,  0.0000,  0.0000)
  35 Pb     9.585019    9.585019    9.573312    ( 0.0000,  0.0000,  0.0000)
  36 I      9.585040    9.585040    6.405975    ( 0.0000,  0.0000,  0.0000)
  37 I      6.394602    9.585036    9.609648    ( 0.0000,  0.0000,  0.0000)
  38 I      9.585036    6.394602    9.609648    ( 0.0000,  0.0000,  0.0000)

Unit cell:
           periodic     x           y           z      points  spacing
  1. axis:    yes   12.780000    0.000000    0.000000    75     0.1704
  2. axis:    yes    0.000000   12.780000    0.000000    75     0.1704
  3. axis:    yes    0.000000    0.000000   12.811950    75     0.1708

  Lengths:  12.780000  12.780000  12.811950
  Angles:   90.000000  90.000000  90.000000

Effective grid spacing dv^(1/3) = 0.1705

     iter     time        total  log10-change:
                         energy   eigst   dens
iter:   1 14:37:36  -113.611016
iter:   2 14:38:07  -113.075829   -1.42  -1.30
iter:   3 14:38:36  -110.872641   -2.02  -1.34
iter:   4 14:39:06  -110.518899   -1.99  -1.53
iter:   5 14:39:37  -110.496129   -2.78  -1.73
iter:   6 14:40:06  -110.438294c  -3.79  -2.09
iter:   7 14:40:35  -110.360538c  -3.43  -2.24
iter:   8 14:41:06  -110.358423c  -4.43  -2.39
iter:   9 14:41:35  -110.361892c  -4.71  -2.69
iter:  10 14:42:08  -110.361809c  -5.03  -2.76
iter:  11 14:42:37  -110.361441c  -6.01  -3.25
iter:  12 14:43:06  -110.361220c  -6.38  -3.28
iter:  13 14:43:35  -110.362262c  -6.19  -3.27
iter:  14 14:44:06  -110.361020c  -6.18  -3.28
iter:  15 14:44:36  -110.361780c  -6.20  -3.22
iter:  16 14:45:06  -110.362205c  -6.45  -3.26
iter:  17 14:45:35  -110.362531c  -6.50  -3.34
iter:  18 14:46:04  -110.361923c  -6.27  -3.33
iter:  19 14:46:33  -110.361454c  -6.79  -3.42
iter:  20 14:47:06  -110.361356c  -7.27  -3.47
iter:  21 14:47:38  -110.362068c  -6.27  -3.53
iter:  22 14:48:07  -110.362065c  -7.14  -3.71
iter:  23 14:48:36  -110.361776c  -6.71  -3.76
iter:  24 14:49:04  -110.361811c  -7.23  -4.18c
iter:  25 14:49:34  -110.361794c  -8.41c -4.21c

Converged after 25 iterations.

Dipole moment: (37.701917, 37.701917, 0.000000) |e|*Ang

Energy contributions relative to reference atoms: (reference = -10684034.619125)

Kinetic:       +191.507715
Potential:     -199.515720
External:        +0.000000
XC:            -101.385040
Entropy (-ST):   -0.179590
Local:           -0.878954
SIC:             +0.000000
--------------------------
Free energy:   -110.451589
Extrapolated:  -110.361794

Showing all kpts
 Kpt  Band  Eigenvalues  Occupancy
  0   170      1.03640    2.00000
  0   171      1.14011    2.00000
  0   172      3.59223    0.92980
  0   173      4.00768    0.02690

  1   170      1.03640    2.00000
  1   171      1.14011    2.00000
  1   172      3.59223    0.92980
  1   173      4.00768    0.02690


Fermi level: 3.57816

Gap: 2.452 eV
Transition (v -> c):
  (s=0, k=0, n=171, [0.25, -0.25, 0.25]) -> (s=0, k=1, n=172, [0.25, 0.25, 0.25])
Direct/indirect transitions are different
Direct gap: 2.452 eV
Transition at: (s=0, k=0, n=171, [0.25, -0.25, 0.25])

Forces in eV/Ang:
  0 Cs    0.00355    0.00355    0.00000
  1 Pb    0.00002    0.00002    0.00736
  2 I    -0.00560    0.00001   -0.01442
  3 I     0.00001   -0.00560   -0.01442
  4 Cs    0.00237    0.00237    0.00000
  5 Pb    0.00002    0.00002   -0.00736
  6 I     0.00002    0.00002    0.00000
  7 I    -0.00560    0.00001    0.01442
  8 I     0.00001   -0.00560    0.01442
  9 Cs    0.00354   -0.00354    0.00000
 10 Pb    0.00002   -0.00002   -0.00217
 11 I     0.00001   -0.00002    0.00000
 12 I    -0.00673   -0.00001   -0.01197
 13 I     0.00001    0.00560   -0.01441
 14 Cs    0.00237   -0.00237    0.00000
 15 Pb    0.00002   -0.00002    0.00217
 16 I     0.00001   -0.00000    0.00000
 17 I    -0.00673   -0.00001    0.01197
 18 I     0.00001    0.00560    0.01441
 19 Cs   -0.00354    0.00354    0.00000
 20 Pb   -0.00002    0.00002   -0.00217
 21 I    -0.00002    0.00001    0.00000
 22 I     0.00560    0.00001   -0.01441
 23 I    -0.00001   -0.00673   -0.01197
 24 Cs   -0.00237    0.00237    0.00000
 25 Pb   -0.00002    0.00002    0.00217
 26 I    -0.00000    0.00001    0.00000
 27 I     0.00560    0.00001    0.01441
 28 I    -0.00001   -0.00673    0.01197
 29 Cs   -0.00353   -0.00353    0.00000
 30 Pb   -0.00002   -0.00002   -0.00701
 31 I    -0.00002   -0.00002    0.00000
 32 I     0.00673   -0.00001   -0.01197
 33 I    -0.00001    0.00673   -0.01197
 34 Cs   -0.00237   -0.00237    0.00000
 35 Pb   -0.00002   -0.00002    0.00701
 36 I    -0.00001   -0.00001    0.00000
 37 I     0.00673   -0.00001    0.01197
 38 I    -0.00001    0.00673    0.01197

Timing:                              incl.     excl.
-----------------------------------------------------------
Forces:                              9.932     9.932   1.2% |
Hamiltonian:                         3.039     0.014   0.0% |
 Atomic:                             0.984     0.002   0.0% |
  XC Correction:                     0.981     0.981   0.1% |
 Calculate atomic Hamiltonians:      1.266     1.266   0.2% |
 Communicate:                        0.000     0.000   0.0% |
 Initialize Hamiltonian:             0.002     0.002   0.0% |
 Poisson:                            0.018     0.018   0.0% |
 XC 3D grid:                         0.755     0.755   0.1% |
LCAO initialization:                39.219     0.088   0.0% |
 LCAO eigensolver:                   1.549     0.000   0.0% |
  Calculate projections:             0.062     0.062   0.0% |
  DenseAtomicCorrection:             0.254     0.254   0.0% |
  Distribute overlap matrix:         0.001     0.001   0.0% |
  Orbital Layouts:                   0.494     0.494   0.1% |
  Potential matrix:                  0.681     0.681   0.1% |
  Sum over cells:                    0.057     0.057   0.0% |
 LCAO to grid:                      36.647    36.647   4.6% |-|
 Set positions (LCAO WFS):           0.936     0.268   0.0% |
  Basic WFS set positions:           0.002     0.002   0.0% |
  Basis functions set positions:     0.000     0.000   0.0% |
  P tci:                             0.580     0.580   0.1% |
  ST tci:                            0.067     0.067   0.0% |
  mktci:                             0.019     0.019   0.0% |
PWDescriptor:                        0.109     0.109   0.0% |
SCF-cycle:                         742.946     0.054   0.0% |
 Davidson:                         603.349   116.086  14.5% |-----|
  Apply H:                          95.743    93.589  11.7% |----|
   HMM T:                            2.154     2.154   0.3% |
  Subspace diag:                   120.812     0.007   0.0% |
   calc_h_matrix:                  105.600    10.973   1.4% ||
    Apply H:                        94.626    92.343  11.5% |----|
     HMM T:                          2.283     2.283   0.3% |
   diagonalize:                      4.215     4.215   0.5% |
   rotate_psi:                      10.991    10.991   1.4% ||
  calc. matrices:                  238.710    49.553   6.2% |-|
   Apply H:                        189.157   184.729  23.1% |--------|
    HMM T:                           4.427     4.427   0.6% |
  diagonalize:                      12.455    12.455   1.6% ||
  rotate_psi:                       19.543    19.543   2.4% ||
 Density:                           76.040     0.000   0.0% |
  Atomic density matrices:           0.098     0.098   0.0% |
  Mix:                              29.742    29.742   3.7% ||
  Multipole moments:                 0.008     0.008   0.0% |
  Pseudo density:                   46.192    44.656   5.6% |-|
   Symmetrize density:               1.535     1.535   0.2% |
 Hamiltonian:                       62.164     0.214   0.0% |
  Atomic:                           22.115     0.055   0.0% |
   XC Correction:                   22.060    22.060   2.8% ||
  Calculate atomic Hamiltonians:    24.102    24.102   3.0% ||
  Communicate:                       0.000     0.000   0.0% |
  Poisson:                           0.270     0.270   0.0% |
  XC 3D grid:                       15.462    15.462   1.9% ||
 Orthonormalize:                     1.340     0.000   0.0% |
  calc_s_matrix:                     0.126     0.126   0.0% |
  inverse-cholesky:                  0.011     0.011   0.0% |
  projections:                       0.884     0.884   0.1% |
  rotate_psi_s:                      0.318     0.318   0.0% |
Set symmetry:                        0.002     0.002   0.0% |
Other:                               5.071     5.071   0.6% |
-----------------------------------------------------------
Total:                                       800.318 100.0%

Memory usage: 2.48 GiB
Date: Fri Jul 17 14:49:44 2026
