
  ___ ___ ___ _ _ _  
 |   |   |_  | | | | 
 | | | | | . | | | | 
 |__ |  _|___|_____|  25.7.0
 |___|_|             

User:   buyer@DESKTOP-3EQA59H
Date:   Fri Jul 17 16:01:36 2026
Arch:   x86_64
Pid:    31109
CWD:    /mnt/c/Users/Buyer/dft-si
Python: 3.11.15
gpaw:   /home/buyer/miniconda3/envs/dft/lib/python3.11/site-packages/gpaw
_gpaw:  /home/buyer/miniconda3/envs/dft/lib/python3.11/site-packages/
        _gpaw.cpython-311-x86_64-linux-gnu.so
ase:    /home/buyer/miniconda3/envs/dft/lib/python3.11/site-packages/ase (version 3.29.0)
numpy:  /home/buyer/miniconda3/envs/dft/lib/python3.11/site-packages/numpy (version 2.4.6)
scipy:  /home/buyer/miniconda3/envs/dft/lib/python3.11/site-packages/scipy (version 1.17.1)
libxc:  7.0.0
units:  Angstrom and eV
cores: 1
OpenMP: True
OMP_NUM_THREADS: 1

Input parameters:
  kpts: [2 2 2]
  mode: {ecut: 600.0,
         name: pw}
  xc: PBE

System changes: positions, numbers, cell, pbc, initial_charges, initial_magmoms 

Initialize ...

species:
  Cs:
    name: Caesium
    id: fa822afd343f47335d508b9ee4f394c3
    Z: 55.0
    valence: 9
    core: 46
    charge: 0.0
    file: /home/buyer/miniconda3/envs/dft/lib/python3.11/site-packages/gpaw_data/setups/Cs.PBE.gz
    compensation charges: {type: gauss,
                           rc: 0.33,
                           lmax: 2}
    cutoffs: {filter: 2.06,
              core: 2.51}
    projectors:
      #              energy  rcut
      - 5s(2.00)   -26.706   1.164
      - 6s(1.00)    -2.085   1.164
      - 5p(6.00)   -13.523   1.058
      -  p          13.688   1.058
      -  d           0.000   1.058
  
    # Using partial waves for Cs as LCAO basis

  Pb:
    name: Lead
    id: 66e73b13d76dc837202bcdb13fee58e6
    Z: 82.0
    valence: 14
    core: 68
    charge: 0.0
    file: /home/buyer/miniconda3/envs/dft/lib/python3.11/site-packages/gpaw_data/setups/Pb.PBE.gz
    compensation charges: {type: gauss,
                           rc: 0.38,
                           lmax: 2}
    cutoffs: {filter: 2.36,
              core: 2.43}
    projectors:
      #              energy  rcut
      - 6s(2.00)   -11.969   1.259
      - 6p(2.00)    -3.506   1.275
      - 5d(10.00)   -21.211   1.217
      -  s          15.243   1.259
      -  p          23.705   1.275
      -  d           6.001   1.217
  
    # Using partial waves for Pb as LCAO basis

  I:
    name: Iodine
    id: 91405a398e4dfe788ff04f57531604ec
    Z: 53.0
    valence: 7
    core: 46
    charge: 0.0
    file: /home/buyer/miniconda3/envs/dft/lib/python3.11/site-packages/gpaw_data/setups/I.PBE.gz
    compensation charges: {type: gauss,
                           rc: 0.37,
                           lmax: 2}
    cutoffs: {filter: 2.06,
              core: 2.90}
    projectors:
      #              energy  rcut
      - 5s(2.00)   -17.382   1.164
      - 5p(5.00)    -7.088   1.164
      -  s           9.829   1.164
      -  p          20.123   1.164
      -  d           0.000   1.164
  
    # Using partial waves for I as LCAO basis

Reference energy: -10684034.619125  # eV

Spin-paired calculation

Convergence criteria:
 Maximum [total energy] change in last 3 cyles: 0.0005 eV / valence electron
 Maximum integral of absolute [dens]ity change: 0.0001 electrons / valence electron
 Maximum integral of absolute [eigenst]ate change: 4e-08 eV^2 / valence electron
 Maximum number of scf [iter]ations: 333
 (Square brackets indicate name in SCF output, whereas a 'c' in
 the SCF output indicates the quantity has converged.)

Symmetries present (total): 4

  ( 1  0  0)  ( 1  0  0)  ( 0  1  0)  ( 0  1  0)
  ( 0  1  0)  ( 0  1  0)  ( 1  0  0)  ( 1  0  0)
  ( 0  0  1)  ( 0  0 -1)  ( 0  0  1)  ( 0  0 -1)

8 k-points: 2 x 2 x 2 Monkhorst-Pack grid
2 k-points in the irreducible part of the Brillouin zone
       k-points in crystal coordinates                weights
   0:     0.25000000   -0.25000000    0.25000000          4/8
   1:     0.25000000    0.25000000    0.25000000          4/8

Wave functions: Plane wave expansion
  Cutoff energy: 600.000 eV
  Number of coefficients (min, max): 70886, 70886
  Pulay-stress correction: 0.000000 eV/Ang^3 (de/decut=0.000000)
  Using FFTW library
  ScaLapack parameters: grid=1x1, blocksize=None
  Wavefunction extrapolation:
    Improved wavefunction reuse through dual PAW basis 

Occupation numbers: Fermi-Dirac:
  width: 0.1000  # eV
 

Eigensolver
   Davidson(niter=2) 

Densities:
  Coarse grid: 75*75*75 grid
  Fine grid: 150*150*150 grid
  Total Charge: 0.000000 

Density mixing:
  Method: separate
  Backend: pulay
  Linear mixing parameter: 0.05
  old densities: 5
  Damping of long wavelength oscillations: 50 

Hamiltonian:
  XC and Coulomb potentials evaluated on a 150*150*150 grid
  Using the PBE Exchange-Correlation functional
  External potential:
    NoExternalPotential
 

XC parameters: PBE with 2 nearest neighbor stencil

Memory estimate:
  Process memory now: 2600.18 MiB
  Calculator: 1009.24 MiB
    Density: 229.04 MiB
      Arrays: 83.68 MiB
      Localized functions: 113.17 MiB
      Mixer: 32.19 MiB
    Hamiltonian: 57.78 MiB
      Arrays: 54.72 MiB
      XC: 0.00 MiB
      Poisson: 0.00 MiB
      vbar: 3.06 MiB
    Wavefunctions: 722.43 MiB
      Arrays psit_nG: 441.31 MiB
      Eigensolver: 232.42 MiB
      Projections: 3.41 MiB
      Projectors: 27.04 MiB
      PW-descriptor: 18.26 MiB

Total number of cores used: 1

Number of atoms: 39
Number of atomic orbitals: 204
Number of bands in calculation: 204
Number of valence electrons: 345
Bands to converge: occupied

... initialized

Initializing position-dependent things.

Density initialized from atomic densities
Creating initial wave functions:
  204 bands from LCAO basis set

         .------------------------------.  
        /|                              |  
       / |                              |  
      /  |                              |  
     /   |                      I       |  
    /    |                              |  
   /     |     Pb      I      Pb      I |  
  /      |                              |  
 *       |   I              I           |  
 |       |                              |  
 | I     | Pb  I  I       Pb  I         |  
 |       |                              |  
 |   Cs  I          Cs          I       |  
 |       |                              |  
 |       | I   Pb      I  I   Pb      I |  
 |       |                              |  
 Cs      .---I--Cs-------Cs-I----------Cs  
 |      /                              /   
 | I   /   Pb  I  I       Pb  I       /    
 |    /                              /     
 |   /   I           Cs             /s     
 |  /                              /       
 | /                      I       /        
 |/                              /         
 *------------------------------*          

Atomic positions and initial magnetic moments

Positions:
   0 Cs    -0.210009   -0.210009    0.000000    ( 0.0000,  0.0000,  0.0000)
   1 Pb     3.194980    3.194980    3.249236    ( 0.0000,  0.0000,  0.0000)
   2 I      0.003522    3.194960    3.114341    ( 0.0000,  0.0000,  0.0000)
   3 I      3.194960    0.003522    3.114341    ( 0.0000,  0.0000,  0.0000)
   4 Cs     0.052300    0.052300    6.501825    ( 0.0000,  0.0000,  0.0000)
   5 Pb     3.194980    3.194980    9.754414    ( 0.0000,  0.0000,  0.0000)
   6 I      3.194958    3.194958    6.501825    ( 0.0000,  0.0000,  0.0000)
   7 I      0.003522    3.194960    9.889309    ( 0.0000,  0.0000,  0.0000)
   8 I      3.194960    0.003522    9.889309    ( 0.0000,  0.0000,  0.0000)
   9 Cs    -0.210002    6.600012    0.000000    ( 0.0000,  0.0000,  0.0000)
  10 Pb     3.194980    9.585021    3.241486    ( 0.0000,  0.0000,  0.0000)
  11 I      3.194957    9.585033    0.000000    ( 0.0000,  0.0000,  0.0000)
  12 I     -0.004603    9.585038    3.250214    ( 0.0000,  0.0000,  0.0000)
  13 I      3.194962    6.386488    3.114361    ( 0.0000,  0.0000,  0.0000)
  14 Cs     0.052300    6.337698    6.501825    ( 0.0000,  0.0000,  0.0000)
  15 Pb     3.194980    9.585021    9.762164    ( 0.0000,  0.0000,  0.0000)
  16 I      3.194962    9.585045    6.501825    ( 0.0000,  0.0000,  0.0000)
  17 I     -0.004603    9.585038    9.753436    ( 0.0000,  0.0000,  0.0000)
  18 I      3.194962    6.386488    9.889289    ( 0.0000,  0.0000,  0.0000)
  19 Cs     6.600012   -0.210002    0.000000    ( 0.0000,  0.0000,  0.0000)
  20 Pb     9.585021    3.194980    3.241486    ( 0.0000,  0.0000,  0.0000)
  21 I      9.585033    3.194957    0.000000    ( 0.0000,  0.0000,  0.0000)
  22 I      6.386488    3.194962    3.114361    ( 0.0000,  0.0000,  0.0000)
  23 I      9.585038   -0.004603    3.250214    ( 0.0000,  0.0000,  0.0000)
  24 Cs     6.337698    0.052300    6.501825    ( 0.0000,  0.0000,  0.0000)
  25 Pb     9.585021    3.194980    9.762164    ( 0.0000,  0.0000,  0.0000)
  26 I      9.585045    3.194962    6.501825    ( 0.0000,  0.0000,  0.0000)
  27 I      6.386488    3.194962    9.889289    ( 0.0000,  0.0000,  0.0000)
  28 I      9.585038   -0.004603    9.753436    ( 0.0000,  0.0000,  0.0000)
  29 Cs     6.600005    6.600005    0.000000    ( 0.0000,  0.0000,  0.0000)
  30 Pb     9.585019    9.585019    3.287097    ( 0.0000,  0.0000,  0.0000)
  31 I      9.585033    9.585033    0.000000    ( 0.0000,  0.0000,  0.0000)
  32 I      6.394602    9.585036    3.250217    ( 0.0000,  0.0000,  0.0000)
  33 I      9.585036    6.394602    3.250217    ( 0.0000,  0.0000,  0.0000)
  34 Cs     6.337698    6.337698    6.501825    ( 0.0000,  0.0000,  0.0000)
  35 Pb     9.585019    9.585019    9.716553    ( 0.0000,  0.0000,  0.0000)
  36 I      9.585040    9.585040    6.501825    ( 0.0000,  0.0000,  0.0000)
  37 I      6.394602    9.585036    9.753433    ( 0.0000,  0.0000,  0.0000)
  38 I      9.585036    6.394602    9.753433    ( 0.0000,  0.0000,  0.0000)

Unit cell:
           periodic     x           y           z      points  spacing
  1. axis:    yes   12.780000    0.000000    0.000000    75     0.1704
  2. axis:    yes    0.000000   12.780000    0.000000    75     0.1704
  3. axis:    yes    0.000000    0.000000   13.003650    75     0.1734

  Lengths:  12.780000  12.780000  13.003650
  Angles:   90.000000  90.000000  90.000000

Effective grid spacing dv^(1/3) = 0.1714

     iter     time        total  log10-change:
                         energy   eigst   dens
iter:   1 16:03:08  -113.708306
iter:   2 16:03:50  -113.133626   -1.43  -1.29
iter:   3 16:04:38  -110.816693   -2.01  -1.33
iter:   4 16:05:46  -110.455258   -1.99  -1.53
iter:   5 16:06:41  -110.433776   -2.75  -1.72
iter:   6 16:07:36  -110.361146c  -3.69  -2.07
iter:   7 16:08:19  -110.290060c  -3.42  -2.24
iter:   8 16:09:04  -110.288323c  -4.47  -2.39
iter:   9 16:10:11  -110.292642c  -4.57  -2.67
iter:  10 16:10:50  -110.291653c  -5.05  -2.78
iter:  11 16:11:39  -110.291360c  -6.04  -3.23
iter:  12 16:12:34  -110.291202c  -6.61  -3.26
iter:  13 16:13:18  -110.292289c  -5.81  -3.24
iter:  14 16:14:00  -110.291599c  -6.72  -3.31
iter:  15 16:14:41  -110.292524c  -5.84  -3.27
iter:  16 16:15:24  -110.291911c  -6.15  -3.38
iter:  17 16:16:04  -110.291465c  -6.34  -3.55
iter:  18 16:16:49  -110.291470c  -7.43c -3.96
iter:  19 16:17:39  -110.291522c  -8.07c -4.02c

Converged after 19 iterations.

Dipole moment: (37.676350, 37.676350, 0.000000) |e|*Ang

Energy contributions relative to reference atoms: (reference = -10684034.619125)

Kinetic:       +181.668891
Potential:     -191.417471
External:        +0.000000
XC:             -99.507721
Entropy (-ST):   -0.176068
Local:           -0.947187
SIC:             +0.000000
--------------------------
Free energy:   -110.379556
Extrapolated:  -110.291522

Showing all kpts
 Kpt  Band  Eigenvalues  Occupancy
  0   170      0.92165    2.00000
  0   171      1.01804    2.00000
  0   172      3.44416    0.93639
  0   173      3.84885    0.03031

  1   170      0.92165    2.00000
  1   171      1.01804    2.00000
  1   172      3.44416    0.93639
  1   173      3.84885    0.03031


Fermi level: 3.43142

Gap: 2.426 eV
Transition (v -> c):
  (s=0, k=0, n=171, [0.25, -0.25, 0.25]) -> (s=0, k=1, n=172, [0.25, 0.25, 0.25])
Direct/indirect transitions are different
Direct gap: 2.426 eV
Transition at: (s=0, k=0, n=171, [0.25, -0.25, 0.25])

Forces in eV/Ang:
  0 Cs   -0.00435   -0.00435    0.00000
  1 Pb    0.00003    0.00003    0.06710
  2 I    -0.01062    0.00002   -0.02369
  3 I     0.00002   -0.01062   -0.02369
  4 Cs   -0.01335   -0.01335    0.00000
  5 Pb    0.00003    0.00003   -0.06710
  6 I     0.00002    0.00002    0.00000
  7 I    -0.01062    0.00002    0.02369
  8 I     0.00002   -0.01062    0.02369
  9 Cs   -0.00435    0.00436    0.00000
 10 Pb    0.00003   -0.00002    0.00133
 11 I     0.00002   -0.00002    0.00000
 12 I    -0.01539   -0.00002   -0.00958
 13 I     0.00001    0.01062   -0.02368
 14 Cs   -0.01335    0.01335    0.00000
 15 Pb    0.00003   -0.00002   -0.00133
 16 I     0.00002   -0.00001    0.00000
 17 I    -0.01539   -0.00002    0.00958
 18 I     0.00001    0.01062    0.02368
 19 Cs    0.00436   -0.00435    0.00000
 20 Pb   -0.00002    0.00003    0.00133
 21 I    -0.00002    0.00002    0.00000
 22 I     0.01062    0.00001   -0.02368
 23 I    -0.00002   -0.01539   -0.00958
 24 Cs    0.01335   -0.01335    0.00000
 25 Pb   -0.00002    0.00003   -0.00133
 26 I    -0.00001    0.00002    0.00000
 27 I     0.01062    0.00001    0.02368
 28 I    -0.00002   -0.01539    0.00958
 29 Cs    0.00436    0.00436    0.00000
 30 Pb   -0.00003   -0.00003    0.03017
 31 I    -0.00003   -0.00003    0.00000
 32 I     0.01539   -0.00001   -0.00958
 33 I    -0.00001    0.01539   -0.00958
 34 Cs    0.01335    0.01335    0.00000
 35 Pb   -0.00003   -0.00003   -0.03017
 36 I    -0.00001   -0.00001    0.00000
 37 I     0.01539   -0.00001    0.00958
 38 I    -0.00001    0.01539    0.00958

Timing:                              incl.     excl.
-----------------------------------------------------------
Forces:                             14.253    14.253   1.5% ||
Hamiltonian:                         3.934     0.014   0.0% |
 Atomic:                             0.959     0.003   0.0% |
  XC Correction:                     0.955     0.955   0.1% |
 Calculate atomic Hamiltonians:      2.067     2.067   0.2% |
 Communicate:                        0.000     0.000   0.0% |
 Initialize Hamiltonian:             0.001     0.001   0.0% |
 Poisson:                            0.026     0.026   0.0% |
 XC 3D grid:                         0.867     0.867   0.1% |
LCAO initialization:                46.368     0.108   0.0% |
 LCAO eigensolver:                   0.939     0.000   0.0% |
  Calculate projections:             0.050     0.050   0.0% |
  DenseAtomicCorrection:             0.029     0.029   0.0% |
  Distribute overlap matrix:         0.001     0.001   0.0% |
  Orbital Layouts:                   0.134     0.134   0.0% |
  Potential matrix:                  0.672     0.672   0.1% |
  Sum over cells:                    0.052     0.052   0.0% |
 LCAO to grid:                      44.493    44.493   4.6% |-|
 Set positions (LCAO WFS):           0.829     0.074   0.0% |
  Basic WFS set positions:           0.002     0.002   0.0% |
  Basis functions set positions:     0.000     0.000   0.0% |
  P tci:                             0.667     0.667   0.1% |
  ST tci:                            0.063     0.063   0.0% |
  mktci:                             0.022     0.022   0.0% |
PWDescriptor:                        0.094     0.094   0.0% |
SCF-cycle:                         906.460     0.076   0.0% |
 Davidson:                         771.092   167.548  17.1% |------|
  Apply H:                         101.028    98.705  10.1% |---|
   HMM T:                            2.324     2.324   0.2% |
  Subspace diag:                   131.839     0.009   0.0% |
   calc_h_matrix:                  111.445    13.008   1.3% ||
    Apply H:                        98.437    96.055   9.8% |---|
     HMM T:                          2.383     2.383   0.2% |
   diagonalize:                      8.639     8.639   0.9% |
   rotate_psi:                      11.746    11.746   1.2% |
  calc. matrices:                  278.237    84.539   8.7% |--|
   Apply H:                        193.699   189.270  19.4% |-------|
    HMM T:                           4.429     4.429   0.5% |
  diagonalize:                      69.939    69.939   7.2% |--|
  rotate_psi:                       22.500    22.500   2.3% ||
 Density:                           75.663     0.000   0.0% |
  Atomic density matrices:           0.084     0.084   0.0% |
  Mix:                              30.486    30.486   3.1% ||
  Multipole moments:                 0.007     0.007   0.0% |
  Pseudo density:                   45.085    43.899   4.5% |-|
   Symmetrize density:               1.186     1.186   0.1% |
 Hamiltonian:                       57.282     0.197   0.0% |
  Atomic:                           18.045     0.044   0.0% |
   XC Correction:                   18.001    18.001   1.8% ||
  Calculate atomic Hamiltonians:    25.654    25.654   2.6% ||
  Communicate:                       0.000     0.000   0.0% |
  Poisson:                           0.244     0.244   0.0% |
  XC 3D grid:                       13.142    13.142   1.3% ||
 Orthonormalize:                     2.348     0.001   0.0% |
  calc_s_matrix:                     0.199     0.199   0.0% |
  inverse-cholesky:                  0.040     0.040   0.0% |
  projections:                       1.652     1.652   0.2% |
  rotate_psi_s:                      0.455     0.455   0.0% |
Set symmetry:                        0.002     0.002   0.0% |
Other:                               6.189     6.189   0.6% |
-----------------------------------------------------------
Total:                                       977.300 100.0%

Memory usage: 2.54 GiB
Date: Fri Jul 17 16:17:53 2026
