
  ___ ___ ___ _ _ _  
 |   |   |_  | | | | 
 | | | | | . | | | | 
 |__ |  _|___|_____|  25.7.0
 |___|_|             

User:   buyer@DESKTOP-3EQA59H
Date:   Fri Jul 17 14:49:44 2026
Arch:   x86_64
Pid:    31109
CWD:    /mnt/c/Users/Buyer/dft-si
Python: 3.11.15
gpaw:   /home/buyer/miniconda3/envs/dft/lib/python3.11/site-packages/gpaw
_gpaw:  /home/buyer/miniconda3/envs/dft/lib/python3.11/site-packages/
        _gpaw.cpython-311-x86_64-linux-gnu.so
ase:    /home/buyer/miniconda3/envs/dft/lib/python3.11/site-packages/ase (version 3.29.0)
numpy:  /home/buyer/miniconda3/envs/dft/lib/python3.11/site-packages/numpy (version 2.4.6)
scipy:  /home/buyer/miniconda3/envs/dft/lib/python3.11/site-packages/scipy (version 1.17.1)
libxc:  7.0.0
units:  Angstrom and eV
cores: 1
OpenMP: True
OMP_NUM_THREADS: 1

Input parameters:
  kpts: [2 2 2]
  mode: {ecut: 600.0,
         name: pw}
  xc: PBE

System changes: positions, numbers, cell, pbc, initial_charges, initial_magmoms 

Initialize ...

species:
  Cs:
    name: Caesium
    id: fa822afd343f47335d508b9ee4f394c3
    Z: 55.0
    valence: 9
    core: 46
    charge: 0.0
    file: /home/buyer/miniconda3/envs/dft/lib/python3.11/site-packages/gpaw_data/setups/Cs.PBE.gz
    compensation charges: {type: gauss,
                           rc: 0.33,
                           lmax: 2}
    cutoffs: {filter: 2.06,
              core: 2.51}
    projectors:
      #              energy  rcut
      - 5s(2.00)   -26.706   1.164
      - 6s(1.00)    -2.085   1.164
      - 5p(6.00)   -13.523   1.058
      -  p          13.688   1.058
      -  d           0.000   1.058
  
    # Using partial waves for Cs as LCAO basis

  Pb:
    name: Lead
    id: 66e73b13d76dc837202bcdb13fee58e6
    Z: 82.0
    valence: 14
    core: 68
    charge: 0.0
    file: /home/buyer/miniconda3/envs/dft/lib/python3.11/site-packages/gpaw_data/setups/Pb.PBE.gz
    compensation charges: {type: gauss,
                           rc: 0.38,
                           lmax: 2}
    cutoffs: {filter: 2.36,
              core: 2.43}
    projectors:
      #              energy  rcut
      - 6s(2.00)   -11.969   1.259
      - 6p(2.00)    -3.506   1.275
      - 5d(10.00)   -21.211   1.217
      -  s          15.243   1.259
      -  p          23.705   1.275
      -  d           6.001   1.217
  
    # Using partial waves for Pb as LCAO basis

  I:
    name: Iodine
    id: 91405a398e4dfe788ff04f57531604ec
    Z: 53.0
    valence: 7
    core: 46
    charge: 0.0
    file: /home/buyer/miniconda3/envs/dft/lib/python3.11/site-packages/gpaw_data/setups/I.PBE.gz
    compensation charges: {type: gauss,
                           rc: 0.37,
                           lmax: 2}
    cutoffs: {filter: 2.06,
              core: 2.90}
    projectors:
      #              energy  rcut
      - 5s(2.00)   -17.382   1.164
      - 5p(5.00)    -7.088   1.164
      -  s           9.829   1.164
      -  p          20.123   1.164
      -  d           0.000   1.164
  
    # Using partial waves for I as LCAO basis

Reference energy: -10684034.619125  # eV

Spin-paired calculation

Convergence criteria:
 Maximum [total energy] change in last 3 cyles: 0.0005 eV / valence electron
 Maximum integral of absolute [dens]ity change: 0.0001 electrons / valence electron
 Maximum integral of absolute [eigenst]ate change: 4e-08 eV^2 / valence electron
 Maximum number of scf [iter]ations: 333
 (Square brackets indicate name in SCF output, whereas a 'c' in
 the SCF output indicates the quantity has converged.)

Symmetries present (total): 4

  ( 1  0  0)  ( 1  0  0)  ( 0  1  0)  ( 0  1  0)
  ( 0  1  0)  ( 0  1  0)  ( 1  0  0)  ( 1  0  0)
  ( 0  0  1)  ( 0  0 -1)  ( 0  0  1)  ( 0  0 -1)

8 k-points: 2 x 2 x 2 Monkhorst-Pack grid
2 k-points in the irreducible part of the Brillouin zone
       k-points in crystal coordinates                weights
   0:     0.25000000   -0.25000000    0.25000000          4/8
   1:     0.25000000    0.25000000    0.25000000          4/8

Wave functions: Plane wave expansion
  Cutoff energy: 600.000 eV
  Number of coefficients (min, max): 70012, 70012
  Pulay-stress correction: 0.000000 eV/Ang^3 (de/decut=0.000000)
  Using FFTW library
  ScaLapack parameters: grid=1x1, blocksize=None
  Wavefunction extrapolation:
    Improved wavefunction reuse through dual PAW basis 

Occupation numbers: Fermi-Dirac:
  width: 0.1000  # eV
 

Eigensolver
   Davidson(niter=2) 

Densities:
  Coarse grid: 75*75*75 grid
  Fine grid: 150*150*150 grid
  Total Charge: 0.000000 

Density mixing:
  Method: separate
  Backend: pulay
  Linear mixing parameter: 0.05
  old densities: 5
  Damping of long wavelength oscillations: 50 

Hamiltonian:
  XC and Coulomb potentials evaluated on a 150*150*150 grid
  Using the PBE Exchange-Correlation functional
  External potential:
    NoExternalPotential
 

XC parameters: PBE with 2 nearest neighbor stencil

Memory estimate:
  Process memory now: 2539.10 MiB
  Calculator: 999.25 MiB
    Density: 227.67 MiB
      Arrays: 83.68 MiB
      Localized functions: 111.80 MiB
      Mixer: 32.19 MiB
    Hamiltonian: 57.74 MiB
      Arrays: 54.72 MiB
      XC: 0.00 MiB
      Poisson: 0.00 MiB
      vbar: 3.02 MiB
    Wavefunctions: 713.84 MiB
      Arrays psit_nG: 435.87 MiB
      Eigensolver: 229.63 MiB
      Projections: 3.41 MiB
      Projectors: 26.71 MiB
      PW-descriptor: 18.23 MiB

Total number of cores used: 1

Number of atoms: 39
Number of atomic orbitals: 204
Number of bands in calculation: 204
Number of valence electrons: 345
Bands to converge: occupied

... initialized

Initializing position-dependent things.

Density initialized from atomic densities
Creating initial wave functions:
  204 bands from LCAO basis set

         .------------------------------.  
        /|                              |  
       / |                              |  
      /  |                              |  
     /   |                      I       |  
    /    |                              |  
   /     |     Pb      I      Pb      I |  
  /      |                              |  
 *       |   I              I           |  
 |       |                              |  
 | I     | Pb  I  I       Pb  I         |  
 |       |                              |  
 |   Cs  I          Cs          I       |  
 |       |                              |  
 |       | I   Pb      I  I   Pb      I |  
 |       |                              |  
 Cs      .---I--Cs-------Cs-I----------Cs  
 |      /                              /   
 | I   /   Pb  I  I       Pb  I       /    
 |    /                              /     
 |   /   I           Cs             /s     
 |  /                              /       
 | /                      I       /        
 |/                              /         
 *------------------------------*          

Atomic positions and initial magnetic moments

Positions:
   0 Cs    -0.210009   -0.210009    0.000000    ( 0.0000,  0.0000,  0.0000)
   1 Pb     3.194980    3.194980    3.209319    ( 0.0000,  0.0000,  0.0000)
   2 I      0.003522    3.194960    3.076082    ( 0.0000,  0.0000,  0.0000)
   3 I      3.194960    0.003522    3.076082    ( 0.0000,  0.0000,  0.0000)
   4 Cs     0.052300    0.052300    6.421950    ( 0.0000,  0.0000,  0.0000)
   5 Pb     3.194980    3.194980    9.634581    ( 0.0000,  0.0000,  0.0000)
   6 I      3.194958    3.194958    6.421950    ( 0.0000,  0.0000,  0.0000)
   7 I      0.003522    3.194960    9.767818    ( 0.0000,  0.0000,  0.0000)
   8 I      3.194960    0.003522    9.767818    ( 0.0000,  0.0000,  0.0000)
   9 Cs    -0.210002    6.600012    0.000000    ( 0.0000,  0.0000,  0.0000)
  10 Pb     3.194980    9.585021    3.201664    ( 0.0000,  0.0000,  0.0000)
  11 I      3.194957    9.585033    0.000000    ( 0.0000,  0.0000,  0.0000)
  12 I     -0.004603    9.585038    3.210286    ( 0.0000,  0.0000,  0.0000)
  13 I      3.194962    6.386488    3.076101    ( 0.0000,  0.0000,  0.0000)
  14 Cs     0.052300    6.337698    6.421950    ( 0.0000,  0.0000,  0.0000)
  15 Pb     3.194980    9.585021    9.642236    ( 0.0000,  0.0000,  0.0000)
  16 I      3.194962    9.585045    6.421950    ( 0.0000,  0.0000,  0.0000)
  17 I     -0.004603    9.585038    9.633614    ( 0.0000,  0.0000,  0.0000)
  18 I      3.194962    6.386488    9.767799    ( 0.0000,  0.0000,  0.0000)
  19 Cs     6.600012   -0.210002    0.000000    ( 0.0000,  0.0000,  0.0000)
  20 Pb     9.585021    3.194980    3.201664    ( 0.0000,  0.0000,  0.0000)
  21 I      9.585033    3.194957    0.000000    ( 0.0000,  0.0000,  0.0000)
  22 I      6.386488    3.194962    3.076101    ( 0.0000,  0.0000,  0.0000)
  23 I      9.585038   -0.004603    3.210286    ( 0.0000,  0.0000,  0.0000)
  24 Cs     6.337698    0.052300    6.421950    ( 0.0000,  0.0000,  0.0000)
  25 Pb     9.585021    3.194980    9.642236    ( 0.0000,  0.0000,  0.0000)
  26 I      9.585045    3.194962    6.421950    ( 0.0000,  0.0000,  0.0000)
  27 I      6.386488    3.194962    9.767799    ( 0.0000,  0.0000,  0.0000)
  28 I      9.585038   -0.004603    9.633614    ( 0.0000,  0.0000,  0.0000)
  29 Cs     6.600005    6.600005    0.000000    ( 0.0000,  0.0000,  0.0000)
  30 Pb     9.585019    9.585019    3.246715    ( 0.0000,  0.0000,  0.0000)
  31 I      9.585033    9.585033    0.000000    ( 0.0000,  0.0000,  0.0000)
  32 I      6.394602    9.585036    3.210288    ( 0.0000,  0.0000,  0.0000)
  33 I      9.585036    6.394602    3.210288    ( 0.0000,  0.0000,  0.0000)
  34 Cs     6.337698    6.337698    6.421950    ( 0.0000,  0.0000,  0.0000)
  35 Pb     9.585019    9.585019    9.597185    ( 0.0000,  0.0000,  0.0000)
  36 I      9.585040    9.585040    6.421950    ( 0.0000,  0.0000,  0.0000)
  37 I      6.394602    9.585036    9.633612    ( 0.0000,  0.0000,  0.0000)
  38 I      9.585036    6.394602    9.633612    ( 0.0000,  0.0000,  0.0000)

Unit cell:
           periodic     x           y           z      points  spacing
  1. axis:    yes   12.780000    0.000000    0.000000    75     0.1704
  2. axis:    yes    0.000000   12.780000    0.000000    75     0.1704
  3. axis:    yes    0.000000    0.000000   12.843900    75     0.1713

  Lengths:  12.780000  12.780000  12.843900
  Angles:   90.000000  90.000000  90.000000

Effective grid spacing dv^(1/3) = 0.1707

     iter     time        total  log10-change:
                         energy   eigst   dens
iter:   1 14:50:52  -113.632302
iter:   2 14:51:21  -113.090631   -1.42  -1.30
iter:   3 14:51:50  -110.868469   -2.02  -1.34
iter:   4 14:52:20  -110.513358   -1.99  -1.53
iter:   5 14:52:48  -110.491381   -2.77  -1.73
iter:   6 14:53:18  -110.431040c  -3.77  -2.09
iter:   7 14:53:48  -110.354098c  -3.43  -2.24
iter:   8 14:54:18  -110.352056c  -4.43  -2.39
iter:   9 14:54:47  -110.355652c  -4.69  -2.68
iter:  10 14:55:17  -110.355427c  -5.03  -2.76
iter:  11 14:55:46  -110.355066c  -6.02  -3.25
iter:  12 14:56:15  -110.354843c  -6.40  -3.28
iter:  13 14:56:46  -110.355905c  -6.13  -3.26
iter:  14 14:57:16  -110.354723c  -6.20  -3.28
iter:  15 14:57:45  -110.355522c  -6.15  -3.22
iter:  16 14:58:15  -110.355827c  -6.62  -3.27
iter:  17 14:58:44  -110.356104c  -6.54  -3.32
iter:  18 14:59:13  -110.355522c  -6.28  -3.32
iter:  19 14:59:41  -110.355164c  -6.84  -3.41
iter:  20 15:00:11  -110.355174c  -7.04  -3.46
iter:  21 15:00:40  -110.355733c  -6.76  -3.53
iter:  22 15:01:12  -110.355746c  -6.99  -3.60
iter:  23 15:01:45  -110.355492c  -6.63  -3.66
iter:  24 15:02:15  -110.355538c  -7.16  -3.93
iter:  25 15:02:44  -110.355637c  -7.44c -4.00
iter:  26 15:03:13  -110.355376c  -7.64c -4.06c

Converged after 26 iterations.

Dipole moment: (37.699465, 37.699465, -0.000000) |e|*Ang

Energy contributions relative to reference atoms: (reference = -10684034.619125)

Kinetic:       +189.721654
Potential:     -198.056881
External:        +0.000000
XC:            -101.029453
Entropy (-ST):   -0.178836
Local:           -0.901278
SIC:             +0.000000
--------------------------
Free energy:   -110.444795
Extrapolated:  -110.355376

Showing all kpts
 Kpt  Band  Eigenvalues  Occupancy
  0   170      1.01574    2.00000
  0   171      1.11913    2.00000
  0   172      3.56754    0.93149
  0   173      3.99182    0.02474

  1   170      1.01574    2.00000
  1   171      1.11913    2.00000
  1   172      3.56754    0.93149
  1   173      3.99182    0.02474


Fermi level: 3.55382

Gap: 2.448 eV
Transition (v -> c):
  (s=0, k=0, n=171, [0.25, -0.25, 0.25]) -> (s=0, k=1, n=172, [0.25, 0.25, 0.25])
Direct/indirect transitions are different
Direct gap: 2.448 eV
Transition at: (s=0, k=0, n=171, [0.25, -0.25, 0.25])

Forces in eV/Ang:
  0 Cs    0.00434    0.00434    0.00000
  1 Pb    0.00002    0.00002    0.02501
  2 I    -0.00487    0.00001   -0.01511
  3 I     0.00001   -0.00487   -0.01511
  4 Cs    0.00295    0.00295    0.00000
  5 Pb    0.00002    0.00002   -0.02501
  6 I     0.00002    0.00002    0.00000
  7 I    -0.00487    0.00001    0.01511
  8 I     0.00001   -0.00487    0.01511
  9 Cs    0.00434   -0.00433    0.00000
 10 Pb    0.00002   -0.00002   -0.00344
 11 I     0.00001   -0.00002    0.00000
 12 I    -0.00660   -0.00001   -0.01262
 13 I     0.00001    0.00486   -0.01510
 14 Cs    0.00296   -0.00296    0.00000
 15 Pb    0.00002   -0.00002    0.00344
 16 I     0.00001   -0.00000    0.00000
 17 I    -0.00660   -0.00001    0.01262
 18 I     0.00001    0.00486    0.01510
 19 Cs   -0.00433    0.00434    0.00000
 20 Pb   -0.00002    0.00002   -0.00344
 21 I    -0.00002    0.00001    0.00000
 22 I     0.00486    0.00001   -0.01510
 23 I    -0.00001   -0.00660   -0.01262
 24 Cs   -0.00296    0.00296    0.00000
 25 Pb   -0.00002    0.00002    0.00344
 26 I    -0.00000    0.00001    0.00000
 27 I     0.00486    0.00001    0.01510
 28 I    -0.00001   -0.00660    0.01262
 29 Cs   -0.00433   -0.00433    0.00000
 30 Pb   -0.00002   -0.00002   -0.00271
 31 I    -0.00002   -0.00002    0.00000
 32 I     0.00660   -0.00001   -0.01262
 33 I    -0.00001    0.00660   -0.01262
 34 Cs   -0.00296   -0.00296    0.00000
 35 Pb   -0.00002   -0.00002    0.00271
 36 I    -0.00001   -0.00001    0.00000
 37 I     0.00660   -0.00001    0.01262
 38 I    -0.00001    0.00660    0.01262

Timing:                              incl.     excl.
-----------------------------------------------------------
Forces:                             10.614    10.614   1.3% ||
Hamiltonian:                         2.595     0.011   0.0% |
 Atomic:                             0.924     0.002   0.0% |
  XC Correction:                     0.922     0.922   0.1% |
 Calculate atomic Hamiltonians:      1.005     1.005   0.1% |
 Communicate:                        0.000     0.000   0.0% |
 Initialize Hamiltonian:             0.001     0.001   0.0% |
 Poisson:                            0.013     0.013   0.0% |
 XC 3D grid:                         0.640     0.640   0.1% |
LCAO initialization:                36.252     0.091   0.0% |
 LCAO eigensolver:                   0.820     0.000   0.0% |
  Calculate projections:             0.004     0.004   0.0% |
  DenseAtomicCorrection:             0.006     0.006   0.0% |
  Distribute overlap matrix:         0.001     0.001   0.0% |
  Orbital Layouts:                   0.132     0.132   0.0% |
  Potential matrix:                  0.658     0.658   0.1% |
  Sum over cells:                    0.018     0.018   0.0% |
 LCAO to grid:                      34.986    34.986   4.3% |-|
 Set positions (LCAO WFS):           0.355     0.084   0.0% |
  Basic WFS set positions:           0.002     0.002   0.0% |
  Basis functions set positions:     0.000     0.000   0.0% |
  P tci:                             0.198     0.198   0.0% |
  ST tci:                            0.063     0.063   0.0% |
  mktci:                             0.008     0.008   0.0% |
PWDescriptor:                        0.049     0.049   0.0% |
SCF-cycle:                         766.656     0.067   0.0% |
 Davidson:                         619.713   109.857  13.4% |----|
  Apply H:                          99.537    97.275  11.9% |----|
   HMM T:                            2.262     2.262   0.3% |
  Subspace diag:                   123.085     0.007   0.0% |
   calc_h_matrix:                  109.670    10.838   1.3% ||
    Apply H:                        98.832    96.461  11.8% |----|
     HMM T:                          2.372     2.372   0.3% |
   diagonalize:                      2.499     2.499   0.3% |
   rotate_psi:                      10.908    10.908   1.3% ||
  calc. matrices:                  252.713    51.980   6.3% |--|
   Apply H:                        200.733   196.200  23.9% |---------|
    HMM T:                           4.533     4.533   0.6% |
  diagonalize:                      14.391    14.391   1.8% ||
  rotate_psi:                       20.131    20.131   2.5% ||
 Density:                           80.377     0.000   0.0% |
  Atomic density matrices:           0.104     0.104   0.0% |
  Mix:                              30.796    30.796   3.8% |-|
  Multipole moments:                 0.009     0.009   0.0% |
  Pseudo density:                   49.467    47.865   5.8% |-|
   Symmetrize density:               1.602     1.602   0.2% |
 Hamiltonian:                       64.941     0.222   0.0% |
  Atomic:                           23.135     0.054   0.0% |
   XC Correction:                   23.080    23.080   2.8% ||
  Calculate atomic Hamiltonians:    25.401    25.401   3.1% ||
  Communicate:                       0.000     0.000   0.0% |
  Poisson:                           0.289     0.289   0.0% |
  XC 3D grid:                       15.895    15.895   1.9% ||
 Orthonormalize:                     1.558     0.000   0.0% |
  calc_s_matrix:                     0.163     0.163   0.0% |
  inverse-cholesky:                  0.005     0.005   0.0% |
  projections:                       1.076     1.076   0.1% |
  rotate_psi_s:                      0.314     0.314   0.0% |
Set symmetry:                        0.001     0.001   0.0% |
Other:                               3.430     3.430   0.4% |
-----------------------------------------------------------
Total:                                       819.597 100.0%

Memory usage: 2.50 GiB
Date: Fri Jul 17 15:03:24 2026
