
  ___ ___ ___ _ _ _  
 |   |   |_  | | | | 
 | | | | | . | | | | 
 |__ |  _|___|_____|  25.7.0
 |___|_|             

User:   buyer@DESKTOP-3EQA59H
Date:   Fri Jul 17 15:43:57 2026
Arch:   x86_64
Pid:    31109
CWD:    /mnt/c/Users/Buyer/dft-si
Python: 3.11.15
gpaw:   /home/buyer/miniconda3/envs/dft/lib/python3.11/site-packages/gpaw
_gpaw:  /home/buyer/miniconda3/envs/dft/lib/python3.11/site-packages/
        _gpaw.cpython-311-x86_64-linux-gnu.so
ase:    /home/buyer/miniconda3/envs/dft/lib/python3.11/site-packages/ase (version 3.29.0)
numpy:  /home/buyer/miniconda3/envs/dft/lib/python3.11/site-packages/numpy (version 2.4.6)
scipy:  /home/buyer/miniconda3/envs/dft/lib/python3.11/site-packages/scipy (version 1.17.1)
libxc:  7.0.0
units:  Angstrom and eV
cores: 1
OpenMP: True
OMP_NUM_THREADS: 1

Input parameters:
  kpts: [2 2 2]
  mode: {ecut: 600.0,
         name: pw}
  xc: PBE

System changes: positions, numbers, cell, pbc, initial_charges, initial_magmoms 

Initialize ...

species:
  Cs:
    name: Caesium
    id: fa822afd343f47335d508b9ee4f394c3
    Z: 55.0
    valence: 9
    core: 46
    charge: 0.0
    file: /home/buyer/miniconda3/envs/dft/lib/python3.11/site-packages/gpaw_data/setups/Cs.PBE.gz
    compensation charges: {type: gauss,
                           rc: 0.33,
                           lmax: 2}
    cutoffs: {filter: 2.06,
              core: 2.51}
    projectors:
      #              energy  rcut
      - 5s(2.00)   -26.706   1.164
      - 6s(1.00)    -2.085   1.164
      - 5p(6.00)   -13.523   1.058
      -  p          13.688   1.058
      -  d           0.000   1.058
  
    # Using partial waves for Cs as LCAO basis

  Pb:
    name: Lead
    id: 66e73b13d76dc837202bcdb13fee58e6
    Z: 82.0
    valence: 14
    core: 68
    charge: 0.0
    file: /home/buyer/miniconda3/envs/dft/lib/python3.11/site-packages/gpaw_data/setups/Pb.PBE.gz
    compensation charges: {type: gauss,
                           rc: 0.38,
                           lmax: 2}
    cutoffs: {filter: 2.36,
              core: 2.43}
    projectors:
      #              energy  rcut
      - 6s(2.00)   -11.969   1.259
      - 6p(2.00)    -3.506   1.275
      - 5d(10.00)   -21.211   1.217
      -  s          15.243   1.259
      -  p          23.705   1.275
      -  d           6.001   1.217
  
    # Using partial waves for Pb as LCAO basis

  I:
    name: Iodine
    id: 91405a398e4dfe788ff04f57531604ec
    Z: 53.0
    valence: 7
    core: 46
    charge: 0.0
    file: /home/buyer/miniconda3/envs/dft/lib/python3.11/site-packages/gpaw_data/setups/I.PBE.gz
    compensation charges: {type: gauss,
                           rc: 0.37,
                           lmax: 2}
    cutoffs: {filter: 2.06,
              core: 2.90}
    projectors:
      #              energy  rcut
      - 5s(2.00)   -17.382   1.164
      - 5p(5.00)    -7.088   1.164
      -  s           9.829   1.164
      -  p          20.123   1.164
      -  d           0.000   1.164
  
    # Using partial waves for I as LCAO basis

Reference energy: -10684034.619125  # eV

Spin-paired calculation

Convergence criteria:
 Maximum [total energy] change in last 3 cyles: 0.0005 eV / valence electron
 Maximum integral of absolute [dens]ity change: 0.0001 electrons / valence electron
 Maximum integral of absolute [eigenst]ate change: 4e-08 eV^2 / valence electron
 Maximum number of scf [iter]ations: 333
 (Square brackets indicate name in SCF output, whereas a 'c' in
 the SCF output indicates the quantity has converged.)

Symmetries present (total): 4

  ( 1  0  0)  ( 1  0  0)  ( 0  1  0)  ( 0  1  0)
  ( 0  1  0)  ( 0  1  0)  ( 1  0  0)  ( 1  0  0)
  ( 0  0  1)  ( 0  0 -1)  ( 0  0  1)  ( 0  0 -1)

8 k-points: 2 x 2 x 2 Monkhorst-Pack grid
2 k-points in the irreducible part of the Brillouin zone
       k-points in crystal coordinates                weights
   0:     0.25000000   -0.25000000    0.25000000          4/8
   1:     0.25000000    0.25000000    0.25000000          4/8

Wave functions: Plane wave expansion
  Cutoff energy: 600.000 eV
  Number of coefficients (min, max): 70721, 70721
  Pulay-stress correction: 0.000000 eV/Ang^3 (de/decut=0.000000)
  Using FFTW library
  ScaLapack parameters: grid=1x1, blocksize=None
  Wavefunction extrapolation:
    Improved wavefunction reuse through dual PAW basis 

Occupation numbers: Fermi-Dirac:
  width: 0.1000  # eV
 

Eigensolver
   Davidson(niter=2) 

Densities:
  Coarse grid: 75*75*75 grid
  Fine grid: 150*150*150 grid
  Total Charge: 0.000000 

Density mixing:
  Method: separate
  Backend: pulay
  Linear mixing parameter: 0.05
  old densities: 5
  Damping of long wavelength oscillations: 50 

Hamiltonian:
  XC and Coulomb potentials evaluated on a 150*150*150 grid
  Using the PBE Exchange-Correlation functional
  External potential:
    NoExternalPotential
 

XC parameters: PBE with 2 nearest neighbor stencil

Memory estimate:
  Process memory now: 2585.06 MiB
  Calculator: 1007.35 MiB
    Density: 228.77 MiB
      Arrays: 83.68 MiB
      Localized functions: 112.90 MiB
      Mixer: 32.19 MiB
    Hamiltonian: 57.77 MiB
      Arrays: 54.72 MiB
      XC: 0.00 MiB
      Poisson: 0.00 MiB
      vbar: 3.05 MiB
    Wavefunctions: 720.81 MiB
      Arrays psit_nG: 440.28 MiB
      Eigensolver: 231.89 MiB
      Projections: 3.41 MiB
      Projectors: 26.98 MiB
      PW-descriptor: 18.25 MiB

Total number of cores used: 1

Number of atoms: 39
Number of atomic orbitals: 204
Number of bands in calculation: 204
Number of valence electrons: 345
Bands to converge: occupied

... initialized

Initializing position-dependent things.

Density initialized from atomic densities
Creating initial wave functions:
  204 bands from LCAO basis set

         .------------------------------.  
        /|                              |  
       / |                              |  
      /  |                              |  
     /   |                      I       |  
    /    |                              |  
   /     |     Pb      I      Pb      I |  
  /      |                              |  
 *       |   I              I           |  
 |       |                              |  
 | I     | Pb  I  I       Pb  I         |  
 |       |                              |  
 |   Cs  I          Cs          I       |  
 |       |                              |  
 |       | I   Pb      I  I   Pb      I |  
 |       |                              |  
 Cs      .---I--Cs-------Cs-I----------Cs  
 |      /                              /   
 | I   /   Pb  I  I       Pb  I       /    
 |    /                              /     
 |   /   I           Cs             /s     
 |  /                              /       
 | /                      I       /        
 |/                              /         
 *------------------------------*          

Atomic positions and initial magnetic moments

Positions:
   0 Cs    -0.210009   -0.210009    0.000000    ( 0.0000,  0.0000,  0.0000)
   1 Pb     3.194980    3.194980    3.241252    ( 0.0000,  0.0000,  0.0000)
   2 I      0.003522    3.194960    3.106689    ( 0.0000,  0.0000,  0.0000)
   3 I      3.194960    0.003522    3.106689    ( 0.0000,  0.0000,  0.0000)
   4 Cs     0.052300    0.052300    6.485850    ( 0.0000,  0.0000,  0.0000)
   5 Pb     3.194980    3.194980    9.730448    ( 0.0000,  0.0000,  0.0000)
   6 I      3.194958    3.194958    6.485850    ( 0.0000,  0.0000,  0.0000)
   7 I      0.003522    3.194960    9.865011    ( 0.0000,  0.0000,  0.0000)
   8 I      3.194960    0.003522    9.865011    ( 0.0000,  0.0000,  0.0000)
   9 Cs    -0.210002    6.600012    0.000000    ( 0.0000,  0.0000,  0.0000)
  10 Pb     3.194980    9.585021    3.233521    ( 0.0000,  0.0000,  0.0000)
  11 I      3.194957    9.585033    0.000000    ( 0.0000,  0.0000,  0.0000)
  12 I     -0.004603    9.585038    3.242229    ( 0.0000,  0.0000,  0.0000)
  13 I      3.194962    6.386488    3.106709    ( 0.0000,  0.0000,  0.0000)
  14 Cs     0.052300    6.337698    6.485850    ( 0.0000,  0.0000,  0.0000)
  15 Pb     3.194980    9.585021    9.738179    ( 0.0000,  0.0000,  0.0000)
  16 I      3.194962    9.585045    6.485850    ( 0.0000,  0.0000,  0.0000)
  17 I     -0.004603    9.585038    9.729471    ( 0.0000,  0.0000,  0.0000)
  18 I      3.194962    6.386488    9.864991    ( 0.0000,  0.0000,  0.0000)
  19 Cs     6.600012   -0.210002    0.000000    ( 0.0000,  0.0000,  0.0000)
  20 Pb     9.585021    3.194980    3.233521    ( 0.0000,  0.0000,  0.0000)
  21 I      9.585033    3.194957    0.000000    ( 0.0000,  0.0000,  0.0000)
  22 I      6.386488    3.194962    3.106709    ( 0.0000,  0.0000,  0.0000)
  23 I      9.585038   -0.004603    3.242229    ( 0.0000,  0.0000,  0.0000)
  24 Cs     6.337698    0.052300    6.485850    ( 0.0000,  0.0000,  0.0000)
  25 Pb     9.585021    3.194980    9.738179    ( 0.0000,  0.0000,  0.0000)
  26 I      9.585045    3.194962    6.485850    ( 0.0000,  0.0000,  0.0000)
  27 I      6.386488    3.194962    9.864991    ( 0.0000,  0.0000,  0.0000)
  28 I      9.585038   -0.004603    9.729471    ( 0.0000,  0.0000,  0.0000)
  29 Cs     6.600005    6.600005    0.000000    ( 0.0000,  0.0000,  0.0000)
  30 Pb     9.585019    9.585019    3.279020    ( 0.0000,  0.0000,  0.0000)
  31 I      9.585033    9.585033    0.000000    ( 0.0000,  0.0000,  0.0000)
  32 I      6.394602    9.585036    3.242231    ( 0.0000,  0.0000,  0.0000)
  33 I      9.585036    6.394602    3.242231    ( 0.0000,  0.0000,  0.0000)
  34 Cs     6.337698    6.337698    6.485850    ( 0.0000,  0.0000,  0.0000)
  35 Pb     9.585019    9.585019    9.692680    ( 0.0000,  0.0000,  0.0000)
  36 I      9.585040    9.585040    6.485850    ( 0.0000,  0.0000,  0.0000)
  37 I      6.394602    9.585036    9.729469    ( 0.0000,  0.0000,  0.0000)
  38 I      9.585036    6.394602    9.729469    ( 0.0000,  0.0000,  0.0000)

Unit cell:
           periodic     x           y           z      points  spacing
  1. axis:    yes   12.780000    0.000000    0.000000    75     0.1704
  2. axis:    yes    0.000000   12.780000    0.000000    75     0.1704
  3. axis:    yes    0.000000    0.000000   12.971700    75     0.1730

  Lengths:  12.780000  12.780000  12.971700
  Angles:   90.000000  90.000000  90.000000

Effective grid spacing dv^(1/3) = 0.1712

     iter     time        total  log10-change:
                         energy   eigst   dens
iter:   1 15:45:32  -113.697235
iter:   2 15:46:09  -113.128921   -1.43  -1.29
iter:   3 15:46:50  -110.831341   -2.01  -1.33
iter:   4 15:47:36  -110.472161   -1.99  -1.53
iter:   5 15:48:26  -110.449213   -2.75  -1.72
iter:   6 15:49:07  -110.379521c  -3.71  -2.07
iter:   7 15:49:52  -110.306940c  -3.42  -2.24
iter:   8 15:50:33  -110.305097c  -4.46  -2.39
iter:   9 15:51:12  -110.309325c  -4.60  -2.68
iter:  10 15:51:49  -110.308438c  -5.04  -2.77
iter:  11 15:52:29  -110.308135c  -6.04  -3.24
iter:  12 15:53:14  -110.307957c  -6.55  -3.26
iter:  13 15:53:58  -110.309023c  -5.90  -3.25
iter:  14 15:54:44  -110.308164c  -6.56  -3.30
iter:  15 15:55:28  -110.309100c  -5.94  -3.25
iter:  16 15:56:17  -110.308910c  -6.53  -3.32
iter:  17 15:57:18  -110.308041c  -6.06  -3.37
iter:  18 15:58:15  -110.308072c  -7.12  -3.81
iter:  19 15:59:09  -110.308446c  -6.78  -3.89
iter:  20 16:00:30  -110.308352c  -7.12  -4.00c
iter:  21 16:01:19  -110.308351c  -8.06c -4.31c

Converged after 21 iterations.

Dipole moment: (37.683730, 37.683730, 0.000000) |e|*Ang

Energy contributions relative to reference atoms: (reference = -10684034.619125)

Kinetic:       +182.679898
Potential:     -192.185445
External:        +0.000000
XC:             -99.784765
Entropy (-ST):   -0.176416
Local:           -0.929832
SIC:             +0.000000
--------------------------
Free energy:   -110.396559
Extrapolated:  -110.308351

Showing all kpts
 Kpt  Band  Eigenvalues  Occupancy
  0   170      0.93912    2.00000
  0   171      1.03795    2.00000
  0   172      3.46877    0.93599
  0   173      3.87881    0.02873

  1   170      0.93912    2.00000
  1   171      1.03795    2.00000
  1   172      3.46877    0.93599
  1   173      3.87881    0.02873


Fermi level: 3.45596

Gap: 2.431 eV
Transition (v -> c):
  (s=0, k=0, n=171, [0.25, -0.25, 0.25]) -> (s=0, k=1, n=172, [0.25, 0.25, 0.25])
Direct/indirect transitions are different
Direct gap: 2.431 eV
Transition at: (s=0, k=0, n=171, [0.25, -0.25, 0.25])

Forces in eV/Ang:
  0 Cs   -0.00447   -0.00447    0.00000
  1 Pb    0.00002    0.00002    0.09543
  2 I    -0.00837    0.00001   -0.01543
  3 I     0.00001   -0.00837   -0.01543
  4 Cs   -0.00034   -0.00034    0.00000
  5 Pb    0.00002    0.00002   -0.09543
  6 I     0.00002    0.00002    0.00000
  7 I    -0.00837    0.00001    0.01543
  8 I     0.00001   -0.00837    0.01543
  9 Cs   -0.00447    0.00448    0.00000
 10 Pb    0.00002   -0.00001   -0.00312
 11 I     0.00001   -0.00001    0.00000
 12 I    -0.00791   -0.00001   -0.01376
 13 I     0.00001    0.00836   -0.01542
 14 Cs   -0.00034    0.00034    0.00000
 15 Pb    0.00002   -0.00001    0.00312
 16 I     0.00001   -0.00000    0.00000
 17 I    -0.00791   -0.00001    0.01376
 18 I     0.00001    0.00836    0.01542
 19 Cs    0.00448   -0.00447    0.00000
 20 Pb   -0.00001    0.00002   -0.00312
 21 I    -0.00001    0.00001    0.00000
 22 I     0.00836    0.00001   -0.01542
 23 I    -0.00001   -0.00791   -0.01376
 24 Cs    0.00034   -0.00034    0.00000
 25 Pb   -0.00001    0.00002    0.00312
 26 I    -0.00000    0.00001    0.00000
 27 I     0.00836    0.00001    0.01542
 28 I    -0.00001   -0.00791    0.01376
 29 Cs    0.00448    0.00448    0.00000
 30 Pb   -0.00002   -0.00002    0.01179
 31 I    -0.00002   -0.00002    0.00000
 32 I     0.00791   -0.00001   -0.01376
 33 I    -0.00001    0.00791   -0.01376
 34 Cs    0.00034    0.00034    0.00000
 35 Pb   -0.00002   -0.00002   -0.01179
 36 I    -0.00001   -0.00001    0.00000
 37 I     0.00791   -0.00001    0.01376
 38 I    -0.00001    0.00791    0.01376

Timing:                              incl.     excl.
-----------------------------------------------------------
Forces:                             16.487    16.487   1.6% ||
Hamiltonian:                         3.028     0.015   0.0% |
 Atomic:                             1.020     0.002   0.0% |
  XC Correction:                     1.017     1.017   0.1% |
 Calculate atomic Hamiltonians:      1.183     1.183   0.1% |
 Communicate:                        0.000     0.000   0.0% |
 Initialize Hamiltonian:             0.001     0.001   0.0% |
 Poisson:                            0.033     0.033   0.0% |
 XC 3D grid:                         0.778     0.778   0.1% |
LCAO initialization:                42.381     0.088   0.0% |
 LCAO eigensolver:                   0.807     0.000   0.0% |
  Calculate projections:             0.019     0.019   0.0% |
  DenseAtomicCorrection:             0.006     0.006   0.0% |
  Distribute overlap matrix:         0.001     0.001   0.0% |
  Orbital Layouts:                   0.055     0.055   0.0% |
  Potential matrix:                  0.658     0.658   0.1% |
  Sum over cells:                    0.068     0.068   0.0% |
 LCAO to grid:                      40.802    40.802   3.9% |-|
 Set positions (LCAO WFS):           0.685     0.057   0.0% |
  Basic WFS set positions:           0.002     0.002   0.0% |
  Basis functions set positions:     0.000     0.000   0.0% |
  P tci:                             0.547     0.547   0.1% |
  ST tci:                            0.062     0.062   0.0% |
  mktci:                             0.017     0.017   0.0% |
PWDescriptor:                        0.157     0.157   0.0% |
SCF-cycle:                         989.339     0.093   0.0% |
 Davidson:                         834.954   178.362  16.8% |------|
  Apply H:                         107.144   104.698   9.9% |---|
   HMM T:                            2.446     2.446   0.2% |
  Subspace diag:                   144.057     0.007   0.0% |
   calc_h_matrix:                  119.385    14.458   1.4% ||
    Apply H:                       104.927   102.420   9.7% |---|
     HMM T:                          2.507     2.507   0.2% |
   diagonalize:                     11.055    11.055   1.0% |
   rotate_psi:                      13.611    13.611   1.3% ||
  calc. matrices:                  302.155    86.531   8.2% |--|
   Apply H:                        215.624   210.685  19.9% |-------|
    HMM T:                           4.939     4.939   0.5% |
  diagonalize:                      79.485    79.485   7.5% |--|
  rotate_psi:                       23.751    23.751   2.2% ||
 Density:                           88.118     0.000   0.0% |
  Atomic density matrices:           0.097     0.097   0.0% |
  Mix:                              35.332    35.332   3.3% ||
  Multipole moments:                 0.008     0.008   0.0% |
  Pseudo density:                   52.680    51.358   4.9% |-|
   Symmetrize density:               1.322     1.322   0.1% |
 Hamiltonian:                       63.152     0.226   0.0% |
  Atomic:                           19.868     0.050   0.0% |
   XC Correction:                   19.818    19.818   1.9% ||
  Calculate atomic Hamiltonians:    28.321    28.321   2.7% ||
  Communicate:                       0.000     0.000   0.0% |
  Poisson:                           0.295     0.295   0.0% |
  XC 3D grid:                       14.443    14.443   1.4% ||
 Orthonormalize:                     3.023     0.000   0.0% |
  calc_s_matrix:                     0.361     0.361   0.0% |
  inverse-cholesky:                  0.194     0.194   0.0% |
  projections:                       1.939     1.939   0.2% |
  rotate_psi_s:                      0.528     0.528   0.0% |
Set symmetry:                        0.002     0.002   0.0% |
Other:                               7.184     7.184   0.7% |
-----------------------------------------------------------
Total:                                      1058.579 100.0%

Memory usage: 2.54 GiB
Date: Fri Jul 17 16:01:36 2026
