
  ___ ___ ___ _ _ _  
 |   |   |_  | | | | 
 | | | | | . | | | | 
 |__ |  _|___|_____|  25.7.0
 |___|_|             

User:   buyer@DESKTOP-3EQA59H
Date:   Fri Jul 17 16:17:53 2026
Arch:   x86_64
Pid:    31109
CWD:    /mnt/c/Users/Buyer/dft-si
Python: 3.11.15
gpaw:   /home/buyer/miniconda3/envs/dft/lib/python3.11/site-packages/gpaw
_gpaw:  /home/buyer/miniconda3/envs/dft/lib/python3.11/site-packages/
        _gpaw.cpython-311-x86_64-linux-gnu.so
ase:    /home/buyer/miniconda3/envs/dft/lib/python3.11/site-packages/ase (version 3.29.0)
numpy:  /home/buyer/miniconda3/envs/dft/lib/python3.11/site-packages/numpy (version 2.4.6)
scipy:  /home/buyer/miniconda3/envs/dft/lib/python3.11/site-packages/scipy (version 1.17.1)
libxc:  7.0.0
units:  Angstrom and eV
cores: 1
OpenMP: True
OMP_NUM_THREADS: 1

Input parameters:
  kpts: [2 2 2]
  mode: {ecut: 600.0,
         name: pw}
  xc: PBE

System changes: positions, numbers, cell, pbc, initial_charges, initial_magmoms 

Initialize ...

species:
  Cs:
    name: Caesium
    id: fa822afd343f47335d508b9ee4f394c3
    Z: 55.0
    valence: 9
    core: 46
    charge: 0.0
    file: /home/buyer/miniconda3/envs/dft/lib/python3.11/site-packages/gpaw_data/setups/Cs.PBE.gz
    compensation charges: {type: gauss,
                           rc: 0.33,
                           lmax: 2}
    cutoffs: {filter: 2.06,
              core: 2.51}
    projectors:
      #              energy  rcut
      - 5s(2.00)   -26.706   1.164
      - 6s(1.00)    -2.085   1.164
      - 5p(6.00)   -13.523   1.058
      -  p          13.688   1.058
      -  d           0.000   1.058
  
    # Using partial waves for Cs as LCAO basis

  Pb:
    name: Lead
    id: 66e73b13d76dc837202bcdb13fee58e6
    Z: 82.0
    valence: 14
    core: 68
    charge: 0.0
    file: /home/buyer/miniconda3/envs/dft/lib/python3.11/site-packages/gpaw_data/setups/Pb.PBE.gz
    compensation charges: {type: gauss,
                           rc: 0.38,
                           lmax: 2}
    cutoffs: {filter: 2.36,
              core: 2.43}
    projectors:
      #              energy  rcut
      - 6s(2.00)   -11.969   1.259
      - 6p(2.00)    -3.506   1.275
      - 5d(10.00)   -21.211   1.217
      -  s          15.243   1.259
      -  p          23.705   1.275
      -  d           6.001   1.217
  
    # Using partial waves for Pb as LCAO basis

  I:
    name: Iodine
    id: 91405a398e4dfe788ff04f57531604ec
    Z: 53.0
    valence: 7
    core: 46
    charge: 0.0
    file: /home/buyer/miniconda3/envs/dft/lib/python3.11/site-packages/gpaw_data/setups/I.PBE.gz
    compensation charges: {type: gauss,
                           rc: 0.37,
                           lmax: 2}
    cutoffs: {filter: 2.06,
              core: 2.90}
    projectors:
      #              energy  rcut
      - 5s(2.00)   -17.382   1.164
      - 5p(5.00)    -7.088   1.164
      -  s           9.829   1.164
      -  p          20.123   1.164
      -  d           0.000   1.164
  
    # Using partial waves for I as LCAO basis

Reference energy: -10684034.619125  # eV

Spin-paired calculation

Convergence criteria:
 Maximum [total energy] change in last 3 cyles: 0.0005 eV / valence electron
 Maximum integral of absolute [dens]ity change: 0.0001 electrons / valence electron
 Maximum integral of absolute [eigenst]ate change: 4e-08 eV^2 / valence electron
 Maximum number of scf [iter]ations: 333
 (Square brackets indicate name in SCF output, whereas a 'c' in
 the SCF output indicates the quantity has converged.)

Symmetries present (total): 4

  ( 1  0  0)  ( 1  0  0)  ( 0  1  0)  ( 0  1  0)
  ( 0  1  0)  ( 0  1  0)  ( 1  0  0)  ( 1  0  0)
  ( 0  0  1)  ( 0  0 -1)  ( 0  0  1)  ( 0  0 -1)

8 k-points: 2 x 2 x 2 Monkhorst-Pack grid
2 k-points in the irreducible part of the Brillouin zone
       k-points in crystal coordinates                weights
   0:     0.25000000   -0.25000000    0.25000000          4/8
   1:     0.25000000    0.25000000    0.25000000          4/8

Wave functions: Plane wave expansion
  Cutoff energy: 600.000 eV
  Number of coefficients (min, max): 71053, 71053
  Pulay-stress correction: 0.000000 eV/Ang^3 (de/decut=0.000000)
  Using FFTW library
  ScaLapack parameters: grid=1x1, blocksize=None
  Wavefunction extrapolation:
    Improved wavefunction reuse through dual PAW basis 

Occupation numbers: Fermi-Dirac:
  width: 0.1000  # eV
 

Eigensolver
   Davidson(niter=2) 

Densities:
  Coarse grid: 75*75*75 grid
  Fine grid: 150*150*150 grid
  Total Charge: 0.000000 

Density mixing:
  Method: separate
  Backend: pulay
  Linear mixing parameter: 0.05
  old densities: 5
  Damping of long wavelength oscillations: 50 

Hamiltonian:
  XC and Coulomb potentials evaluated on a 150*150*150 grid
  Using the PBE Exchange-Correlation functional
  External potential:
    NoExternalPotential
 

XC parameters: PBE with 2 nearest neighbor stencil

Memory estimate:
  Process memory now: 2600.18 MiB
  Calculator: 1011.19 MiB
    Density: 229.34 MiB
      Arrays: 83.68 MiB
      Localized functions: 113.46 MiB
      Mixer: 32.19 MiB
    Hamiltonian: 57.78 MiB
      Arrays: 54.72 MiB
      XC: 0.00 MiB
      Poisson: 0.00 MiB
      vbar: 3.07 MiB
    Wavefunctions: 724.07 MiB
      Arrays psit_nG: 442.35 MiB
      Eigensolver: 232.95 MiB
      Projections: 3.41 MiB
      Projectors: 27.10 MiB
      PW-descriptor: 18.26 MiB

Total number of cores used: 1

Number of atoms: 39
Number of atomic orbitals: 204
Number of bands in calculation: 204
Number of valence electrons: 345
Bands to converge: occupied

... initialized

Initializing position-dependent things.

Density initialized from atomic densities
Creating initial wave functions:
  204 bands from LCAO basis set

         .------------------------------.  
        /|                              |  
       / |                              |  
      /  |                              |  
     /   |                      I       |  
    /    |                              |  
   /     |     Pb      I      Pb      I |  
  /      |                              |  
 *       |   I              I           |  
 |       |                              |  
 | I     | Pb  I  I       Pb  I         |  
 |       |                              |  
 |   Cs  I          Cs          I       |  
 |       |                              |  
 |       | I   Pb      I  I   Pb      I |  
 |       |                              |  
 Cs      .---I--Cs-------Cs-I----------Cs  
 |      /                              /   
 | I   /   Pb  I  I       Pb  I       /    
 |    /                              /     
 |   /   I           Cs             /s     
 |  /                              /       
 | /                      I       /        
 |/                              /         
 *------------------------------*          

Atomic positions and initial magnetic moments

Positions:
   0 Cs    -0.210009   -0.210009    0.000000    ( 0.0000,  0.0000,  0.0000)
   1 Pb     3.194980    3.194980    3.257219    ( 0.0000,  0.0000,  0.0000)
   2 I      0.003522    3.194960    3.121993    ( 0.0000,  0.0000,  0.0000)
   3 I      3.194960    0.003522    3.121993    ( 0.0000,  0.0000,  0.0000)
   4 Cs     0.052300    0.052300    6.517800    ( 0.0000,  0.0000,  0.0000)
   5 Pb     3.194980    3.194980    9.778381    ( 0.0000,  0.0000,  0.0000)
   6 I      3.194958    3.194958    6.517800    ( 0.0000,  0.0000,  0.0000)
   7 I      0.003522    3.194960    9.913607    ( 0.0000,  0.0000,  0.0000)
   8 I      3.194960    0.003522    9.913607    ( 0.0000,  0.0000,  0.0000)
   9 Cs    -0.210002    6.600012    0.000000    ( 0.0000,  0.0000,  0.0000)
  10 Pb     3.194980    9.585021    3.249450    ( 0.0000,  0.0000,  0.0000)
  11 I      3.194957    9.585033    0.000000    ( 0.0000,  0.0000,  0.0000)
  12 I     -0.004603    9.585038    3.258200    ( 0.0000,  0.0000,  0.0000)
  13 I      3.194962    6.386488    3.122013    ( 0.0000,  0.0000,  0.0000)
  14 Cs     0.052300    6.337698    6.517800    ( 0.0000,  0.0000,  0.0000)
  15 Pb     3.194980    9.585021    9.786150    ( 0.0000,  0.0000,  0.0000)
  16 I      3.194962    9.585045    6.517800    ( 0.0000,  0.0000,  0.0000)
  17 I     -0.004603    9.585038    9.777400    ( 0.0000,  0.0000,  0.0000)
  18 I      3.194962    6.386488    9.913587    ( 0.0000,  0.0000,  0.0000)
  19 Cs     6.600012   -0.210002    0.000000    ( 0.0000,  0.0000,  0.0000)
  20 Pb     9.585021    3.194980    3.249450    ( 0.0000,  0.0000,  0.0000)
  21 I      9.585033    3.194957    0.000000    ( 0.0000,  0.0000,  0.0000)
  22 I      6.386488    3.194962    3.122013    ( 0.0000,  0.0000,  0.0000)
  23 I      9.585038   -0.004603    3.258200    ( 0.0000,  0.0000,  0.0000)
  24 Cs     6.337698    0.052300    6.517800    ( 0.0000,  0.0000,  0.0000)
  25 Pb     9.585021    3.194980    9.786150    ( 0.0000,  0.0000,  0.0000)
  26 I      9.585045    3.194962    6.517800    ( 0.0000,  0.0000,  0.0000)
  27 I      6.386488    3.194962    9.913587    ( 0.0000,  0.0000,  0.0000)
  28 I      9.585038   -0.004603    9.777400    ( 0.0000,  0.0000,  0.0000)
  29 Cs     6.600005    6.600005    0.000000    ( 0.0000,  0.0000,  0.0000)
  30 Pb     9.585019    9.585019    3.295173    ( 0.0000,  0.0000,  0.0000)
  31 I      9.585033    9.585033    0.000000    ( 0.0000,  0.0000,  0.0000)
  32 I      6.394602    9.585036    3.258203    ( 0.0000,  0.0000,  0.0000)
  33 I      9.585036    6.394602    3.258203    ( 0.0000,  0.0000,  0.0000)
  34 Cs     6.337698    6.337698    6.517800    ( 0.0000,  0.0000,  0.0000)
  35 Pb     9.585019    9.585019    9.740427    ( 0.0000,  0.0000,  0.0000)
  36 I      9.585040    9.585040    6.517800    ( 0.0000,  0.0000,  0.0000)
  37 I      6.394602    9.585036    9.777397    ( 0.0000,  0.0000,  0.0000)
  38 I      9.585036    6.394602    9.777397    ( 0.0000,  0.0000,  0.0000)

Unit cell:
           periodic     x           y           z      points  spacing
  1. axis:    yes   12.780000    0.000000    0.000000    75     0.1704
  2. axis:    yes    0.000000   12.780000    0.000000    75     0.1704
  3. axis:    yes    0.000000    0.000000   13.035600    75     0.1738

  Lengths:  12.780000  12.780000  13.035600
  Angles:   90.000000  90.000000  90.000000

Effective grid spacing dv^(1/3) = 0.1715

     iter     time        total  log10-change:
                         energy   eigst   dens
iter:   1 16:19:20  -113.717902
iter:   2 16:20:05  -113.136458   -1.43  -1.29
iter:   3 16:21:09  -110.800319   -2.00  -1.33
iter:   4 16:21:52  -110.438901   -1.99  -1.53
iter:   5 16:22:44  -110.415822   -2.74  -1.72
iter:   6 16:23:25  -110.340886c  -3.67  -2.07
iter:   7 16:24:04  -110.271340c  -3.43  -2.25
iter:   8 16:24:40  -110.269617c  -4.48  -2.39
iter:   9 16:25:16  -110.274089c  -4.56  -2.67
iter:  10 16:25:49  -110.272961c  -5.05  -2.79
iter:  11 16:26:32  -110.272682c  -6.05  -3.23
iter:  12 16:27:12  -110.272561c  -6.67  -3.26
iter:  13 16:28:01  -110.273572c  -5.78  -3.24
iter:  14 16:28:47  -110.272933c  -6.80  -3.32
iter:  15 16:29:45  -110.273648c  -6.23  -3.29
iter:  16 16:30:32  -110.273380c  -6.72  -3.33
iter:  17 16:31:10  -110.272548c  -6.12  -3.38
iter:  18 16:31:48  -110.272537c  -7.13  -3.80
iter:  19 16:32:47  -110.272925c  -6.82  -3.89
iter:  20 16:33:29  -110.272803c  -7.07  -4.01c
iter:  21 16:34:09  -110.272832c  -7.76c -4.11c

Converged after 21 iterations.

Dipole moment: (37.675483, 37.675483, 0.000000) |e|*Ang

Energy contributions relative to reference atoms: (reference = -10684034.619125)

Kinetic:       +179.457863
Potential:     -189.566715
External:        +0.000000
XC:             -99.184113
Entropy (-ST):   -0.175664
Local:           -0.892035
SIC:             +0.000000
--------------------------
Free energy:   -110.360664
Extrapolated:  -110.272832

Showing all kpts
 Kpt  Band  Eigenvalues  Occupancy
  0   170      0.90533    2.00000
  0   171      0.99824    2.00000
  0   172      3.41939    0.93682
  0   173      3.81899    0.03189

  1   170      0.90533    2.00000
  1   171      0.99824    2.00000
  1   172      3.41939    0.93682
  1   173      3.81899    0.03189


Fermi level: 3.40674

Gap: 2.421 eV
Transition (v -> c):
  (s=0, k=0, n=171, [0.25, -0.25, 0.25]) -> (s=0, k=1, n=172, [0.25, 0.25, 0.25])
Direct/indirect transitions are different
Direct gap: 2.421 eV
Transition at: (s=0, k=0, n=171, [0.25, -0.25, 0.25])

Forces in eV/Ang:
  0 Cs   -0.00658   -0.00658    0.00000
  1 Pb    0.00002    0.00002    0.12583
  2 I    -0.00661    0.00001   -0.01722
  3 I     0.00001   -0.00661   -0.01722
  4 Cs   -0.00210   -0.00210    0.00000
  5 Pb    0.00002    0.00002   -0.12583
  6 I     0.00002    0.00002    0.00000
  7 I    -0.00661    0.00001    0.01722
  8 I     0.00001   -0.00661    0.01722
  9 Cs   -0.00658    0.00659    0.00000
 10 Pb    0.00002   -0.00002   -0.00443
 11 I     0.00001   -0.00002    0.00000
 12 I    -0.00894   -0.00001   -0.01399
 13 I     0.00001    0.00660   -0.01721
 14 Cs   -0.00209    0.00209    0.00000
 15 Pb    0.00002   -0.00002    0.00443
 16 I     0.00001   -0.00000    0.00000
 17 I    -0.00894   -0.00001    0.01399
 18 I     0.00001    0.00660    0.01721
 19 Cs    0.00659   -0.00658    0.00000
 20 Pb   -0.00002    0.00002   -0.00443
 21 I    -0.00002    0.00001    0.00000
 22 I     0.00660    0.00001   -0.01721
 23 I    -0.00001   -0.00894   -0.01399
 24 Cs    0.00209   -0.00209    0.00000
 25 Pb   -0.00002    0.00002    0.00443
 26 I    -0.00000    0.00001    0.00000
 27 I     0.00660    0.00001    0.01721
 28 I    -0.00001   -0.00894    0.01399
 29 Cs    0.00659    0.00659    0.00000
 30 Pb   -0.00002   -0.00002    0.02097
 31 I    -0.00002   -0.00002    0.00000
 32 I     0.00894   -0.00001   -0.01399
 33 I    -0.00001    0.00894   -0.01399
 34 Cs    0.00209    0.00209    0.00000
 35 Pb   -0.00002   -0.00002   -0.02097
 36 I    -0.00001   -0.00001    0.00000
 37 I     0.00894   -0.00001    0.01399
 38 I    -0.00001    0.00894    0.01399

Timing:                              incl.     excl.
-----------------------------------------------------------
Forces:                             17.212    17.212   1.7% ||
Hamiltonian:                         3.373     0.012   0.0% |
 Atomic:                             1.138     0.003   0.0% |
  XC Correction:                     1.135     1.135   0.1% |
 Calculate atomic Hamiltonians:      1.394     1.394   0.1% |
 Communicate:                        0.000     0.000   0.0% |
 Initialize Hamiltonian:             0.002     0.002   0.0% |
 Poisson:                            0.029     0.029   0.0% |
 XC 3D grid:                         0.799     0.799   0.1% |
LCAO initialization:                40.807     0.095   0.0% |
 LCAO eigensolver:                   1.149     0.000   0.0% |
  Calculate projections:             0.065     0.065   0.0% |
  DenseAtomicCorrection:             0.145     0.145   0.0% |
  Distribute overlap matrix:         0.001     0.001   0.0% |
  Orbital Layouts:                   0.174     0.174   0.0% |
  Potential matrix:                  0.689     0.689   0.1% |
  Sum over cells:                    0.075     0.075   0.0% |
 LCAO to grid:                      38.577    38.577   3.9% |-|
 Set positions (LCAO WFS):           0.985     0.229   0.0% |
  Basic WFS set positions:           0.002     0.002   0.0% |
  Basis functions set positions:     0.000     0.000   0.0% |
  P tci:                             0.670     0.670   0.1% |
  ST tci:                            0.068     0.068   0.0% |
  mktci:                             0.017     0.017   0.0% |
PWDescriptor:                        0.110     0.110   0.0% |
SCF-cycle:                         925.733     0.072   0.0% |
 Davidson:                         772.178   159.683  16.1% |-----|
  Apply H:                         103.475   101.171  10.2% |---|
   HMM T:                            2.305     2.305   0.2% |
  Subspace diag:                   131.684     0.007   0.0% |
   calc_h_matrix:                  114.095    13.564   1.4% ||
    Apply H:                       100.531    98.220   9.9% |---|
     HMM T:                          2.311     2.311   0.2% |
   diagonalize:                      5.748     5.748   0.6% |
   rotate_psi:                      11.833    11.833   1.2% |
  calc. matrices:                  282.767    77.095   7.8% |--|
   Apply H:                        205.672   201.036  20.2% |-------|
    HMM T:                           4.636     4.636   0.5% |
  diagonalize:                      71.207    71.207   7.2% |--|
  rotate_psi:                       23.362    23.362   2.4% ||
 Density:                           86.888     0.000   0.0% |
  Atomic density matrices:           0.091     0.091   0.0% |
  Mix:                              33.693    33.693   3.4% ||
  Multipole moments:                 0.008     0.008   0.0% |
  Pseudo density:                   53.095    51.777   5.2% |-|
   Symmetrize density:               1.319     1.319   0.1% |
 Hamiltonian:                       63.382     0.214   0.0% |
  Atomic:                           19.690     0.049   0.0% |
   XC Correction:                   19.641    19.641   2.0% ||
  Calculate atomic Hamiltonians:    29.213    29.213   2.9% ||
  Communicate:                       0.000     0.000   0.0% |
  Poisson:                           0.284     0.284   0.0% |
  XC 3D grid:                       13.980    13.980   1.4% ||
 Orthonormalize:                     3.214     0.000   0.0% |
  calc_s_matrix:                     0.312     0.312   0.0% |
  inverse-cholesky:                  0.019     0.019   0.0% |
  projections:                       2.492     2.492   0.3% |
  rotate_psi_s:                      0.391     0.391   0.0% |
Set symmetry:                        0.002     0.002   0.0% |
Other:                               6.249     6.249   0.6% |
-----------------------------------------------------------
Total:                                       993.486 100.0%

Memory usage: 2.54 GiB
Date: Fri Jul 17 16:34:27 2026
