
  ___ ___ ___ _ _ _  
 |   |   |_  | | | | 
 | | | | | . | | | | 
 |__ |  _|___|_____|  25.7.0
 |___|_|             

User:   buyer@DESKTOP-3EQA59H
Date:   Fri Jul 24 00:01:29 2026
Arch:   x86_64
Pid:    14237
CWD:    /mnt/c/Users/Buyer/dft-si
Python: 3.11.15
gpaw:   /home/buyer/miniconda3/envs/dft/lib/python3.11/site-packages/gpaw
_gpaw:  /home/buyer/miniconda3/envs/dft/lib/python3.11/site-packages/
        _gpaw.cpython-311-x86_64-linux-gnu.so
ase:    /home/buyer/miniconda3/envs/dft/lib/python3.11/site-packages/ase (version 3.29.0)
numpy:  /home/buyer/miniconda3/envs/dft/lib/python3.11/site-packages/numpy (version 2.4.6)
scipy:  /home/buyer/miniconda3/envs/dft/lib/python3.11/site-packages/scipy (version 1.17.1)
libxc:  7.0.0
units:  Angstrom and eV
cores: 1
OpenMP: True
OMP_NUM_THREADS: 1

Input parameters:
  kpts: [6 6 6]
  mode: {ecut: 500.0,
         name: pw}
  symmetry: {point_group: False}
  xc: PBE

System changes: positions, numbers, cell, pbc, initial_charges, initial_magmoms 

Initialize ...

species:
  Si:
    name: Silicon
    id: ee77bee481871cc2cb65ac61239ccafa
    Z: 14.0
    valence: 4
    core: 10
    charge: 0.0
    file: /home/buyer/miniconda3/envs/dft/lib/python3.11/site-packages/gpaw_data/setups/Si.PBE.gz
    compensation charges: {type: gauss,
                           rc: 0.33,
                           lmax: 2}
    cutoffs: {filter: 1.86,
              core: 2.06}
    projectors:
      #              energy  rcut
      - 3s(2.00)   -10.812   1.058
      - 3p(2.00)    -4.081   1.058
      -  s          16.399   1.058
      -  p          23.130   1.058
      -  d           0.000   1.058
  
    # Using partial waves for Si as LCAO basis

Reference energy: -63090.754002  # eV

Spin-paired calculation

Convergence criteria:
 Maximum [total energy] change in last 3 cyles: 0.0005 eV / valence electron
 Maximum integral of absolute [dens]ity change: 0.0001 electrons / valence electron
 Maximum integral of absolute [eigenst]ate change: 4e-08 eV^2 / valence electron
 Maximum number of scf [iter]ations: 333
 (Square brackets indicate name in SCF output, whereas a 'c' in
 the SCF output indicates the quantity has converged.)

Symmetries present (total): 1

  ( 1  0  0)
  ( 0  1  0)
  ( 0  0  1)

216 k-points: 6 x 6 x 6 Monkhorst-Pack grid
108 k-points in the irreducible part of the Brillouin zone
       k-points in crystal coordinates                weights
   0:     0.08333333   -0.41666667   -0.41666667          2/216
   1:     0.08333333   -0.41666667   -0.25000000          2/216
   2:     0.08333333   -0.41666667   -0.08333333          2/216
   3:     0.08333333   -0.41666667    0.08333333          2/216
   4:     0.08333333   -0.41666667    0.25000000          2/216
   5:     0.08333333   -0.41666667    0.41666667          2/216
   6:     0.08333333   -0.25000000   -0.41666667          2/216
   7:     0.08333333   -0.25000000   -0.25000000          2/216
   8:     0.08333333   -0.25000000   -0.08333333          2/216
   9:     0.08333333   -0.25000000    0.08333333          2/216
          ...
 107:     0.41666667    0.41666667    0.41666667          2/216

Wave functions: Plane wave expansion
  Cutoff energy: 500.000 eV
  Number of coefficients (min, max): 3995, 4050
  Pulay-stress correction: 0.000000 eV/Ang^3 (de/decut=0.000000)
  Using FFTW library
  ScaLapack parameters: grid=1x1, blocksize=None
  Wavefunction extrapolation:
    Improved wavefunction reuse through dual PAW basis 

Occupation numbers: Fermi-Dirac:
  width: 0.1000  # eV
 

Eigensolver
   Davidson(niter=2) 

Densities:
  Coarse grid: 28*28*28 grid
  Fine grid: 56*56*56 grid
  Total Charge: 0.000000 

Density mixing:
  Method: separate
  Backend: pulay
  Linear mixing parameter: 0.05
  old densities: 5
  Damping of long wavelength oscillations: 50 

Hamiltonian:
  XC and Coulomb potentials evaluated on a 56*56*56 grid
  Using the PBE Exchange-Correlation functional
  External potential:
    NoExternalPotential
 

XC parameters: PBE with 2 nearest neighbor stencil

Memory estimate:
  Process memory now: 811.06 MiB
  Calculator: 233.51 MiB
    Density: 10.30 MiB
      Arrays: 4.35 MiB
      Localized functions: 4.27 MiB
      Mixer: 1.67 MiB
    Hamiltonian: 2.93 MiB
      Arrays: 2.85 MiB
      XC: 0.00 MiB
      Poisson: 0.00 MiB
      vbar: 0.09 MiB
    Wavefunctions: 220.28 MiB
      Arrays psit_nG: 160.18 MiB
      Eigensolver: 1.88 MiB
      Projections: 4.11 MiB
      Projectors: 46.59 MiB
      PW-descriptor: 7.51 MiB

Total number of cores used: 1

Number of atoms: 8
Number of atomic orbitals: 32
Number of bands in calculation: 24
Number of valence electrons: 32
Bands to converge: occupied

... initialized

Initializing position-dependent things.

Density initialized from atomic densities
Creating initial wave functions:
  24 bands from LCAO basis set

                             
                             
                             
                             
             Si              
                  Si         
         Si                  
                    Si       
              Si             
           Si                
                Si           
       Si                    
                             
                             
                             
                             

Atomic positions and initial magnetic moments

Positions:
   0 Si    -0.000024   -0.000107    0.000106    ( 0.0000,  0.0000,  0.0000)
   1 Si     1.354475    1.354653    1.354684    ( 0.0000,  0.0000,  0.0000)
   2 Si    -0.000016    2.709537    2.709345    ( 0.0000,  0.0000,  0.0000)
   3 Si     1.354465    4.064230    4.064179    ( 0.0000,  0.0000,  0.0000)
   4 Si     2.709448   -0.000125    2.709318    ( 0.0000,  0.0000,  0.0000)
   5 Si     4.064435    1.354648    4.064182    ( 0.0000,  0.0000,  0.0000)
   6 Si     2.709439    2.709546    0.000130    ( 0.0000,  0.0000,  0.0000)
   7 Si     4.064394    4.064236    1.354689    ( 0.0000,  0.0000,  0.0000)

Unit cell:
           periodic     x           y           z      points  spacing
  1. axis:    yes    5.418872   -0.000002    0.000003    28     0.1935
  2. axis:    yes   -0.000002    5.418873    0.000003    28     0.1935
  3. axis:    yes    0.000003    0.000003    5.418873    28     0.1935

  Lengths:   5.418872   5.418873   5.418873
  Angles:   89.999945  89.999946  90.000052

Effective grid spacing dv^(1/3) = 0.1935

     iter     time        total  log10-change:
                         energy   eigst   dens
iter:   1 00:01:51   -43.493531
iter:   2 00:02:01   -43.505320   -1.88  -0.81
iter:   3 00:02:11   -43.948931   -1.21  -0.81
iter:   4 00:02:26   -43.346903   -2.61  -0.81
iter:   5 00:02:39   -43.278376   -3.44  -1.20
iter:   6 00:02:54   -43.152203   -2.52  -1.31
iter:   7 00:03:08   -43.151562   -4.28  -2.46
iter:   8 00:03:25   -43.151621c  -4.90  -2.97
iter:   9 00:03:43   -43.151585c  -6.11  -3.01
iter:  10 00:03:59   -43.151570c  -6.97  -3.23
iter:  11 00:04:11   -43.151567c  -6.85  -3.42
iter:  12 00:04:24   -43.151557c  -6.98  -3.54
iter:  13 00:04:37   -43.151556c  -7.41c -4.21c

Converged after 13 iterations.

Dipole moment: (0.001153, 0.006441, -0.006498) |e|*Ang

Energy contributions relative to reference atoms: (reference = -63090.754002)

Kinetic:        +64.626672
Potential:      -56.563023
External:        +0.000000
XC:             -51.110940
Entropy (-ST):   -0.002934
Local:           -0.102798
SIC:             +0.000000
--------------------------
Free energy:    -43.153024
Extrapolated:   -43.151556

Showing only first 2 kpts
 Kpt  Band  Eigenvalues  Occupancy
  0    14      3.70876    2.00000
  0    15      4.43982    1.99999
  0    16      7.39449    0.00000
  0    17      8.16947    0.00000

  1    14      3.44501    2.00000
  1    15      4.38739    1.99999
  1    16      7.49564    0.00000
  1    17      7.50760    0.00000


Fermi level: 5.65617

Gap: 0.903 eV
Transition (v -> c):
  (s=0, k=15, n=15, [0.08, -0.08, 0.08]) -> (s=0, k=14, n=16, [0.08, -0.08, -0.08])
Direct/indirect transitions are different
Direct gap: 0.903 eV
Transition at: (s=0, k=14, n=15, [0.08, -0.08, -0.08])
Timing:                              incl.     excl.
-----------------------------------------------------------
Hamiltonian:                         0.212     0.000   0.0% |
 Atomic:                             0.142     0.001   0.0% |
  XC Correction:                     0.141     0.141   0.1% |
 Calculate atomic Hamiltonians:      0.013     0.013   0.0% |
 Communicate:                        0.000     0.000   0.0% |
 Initialize Hamiltonian:             0.000     0.000   0.0% |
 Poisson:                            0.001     0.001   0.0% |
 XC 3D grid:                         0.057     0.057   0.0% |
LCAO initialization:                11.145     0.007   0.0% |
 LCAO eigensolver:                   0.266     0.002   0.0% |
  Calculate projections:             0.006     0.006   0.0% |
  DenseAtomicCorrection:             0.021     0.021   0.0% |
  Distribute overlap matrix:         0.002     0.002   0.0% |
  Orbital Layouts:                   0.060     0.060   0.0% |
  Potential matrix:                  0.145     0.145   0.1% |
  Sum over cells:                    0.030     0.030   0.0% |
 LCAO to grid:                       9.844     9.844   5.2% |-|
 Set positions (LCAO WFS):           1.027     0.109   0.1% |
  Basic WFS set positions:           0.000     0.000   0.0% |
  Basis functions set positions:     0.000     0.000   0.0% |
  P tci:                             0.630     0.630   0.3% |
  ST tci:                            0.282     0.282   0.2% |
  mktci:                             0.006     0.006   0.0% |
PWDescriptor:                        0.050     0.050   0.0% |
SCF-cycle:                         176.226     0.278   0.1% |
 Davidson:                         166.839    37.073  19.7% |-------|
  Apply H:                          19.350    18.616   9.9% |---|
   HMM T:                            0.734     0.734   0.4% |
  Subspace diag:                    28.963     0.142   0.1% |
   calc_h_matrix:                   21.038     1.712   0.9% |
    Apply H:                        19.326    18.535   9.9% |---|
     HMM T:                          0.791     0.791   0.4% |
   diagonalize:                      0.456     0.456   0.2% |
   rotate_psi:                       7.327     7.327   3.9% |-|
  calc. matrices:                   47.532     8.796   4.7% |-|
   Apply H:                         38.736    37.195  19.8% |-------|
    HMM T:                           1.542     1.542   0.8% |
  diagonalize:                      20.239    20.239  10.8% |---|
  rotate_psi:                       13.682    13.682   7.3% |--|
 Density:                            5.968     0.000   0.0% |
  Atomic density matrices:           0.116     0.116   0.1% |
  Mix:                               0.451     0.451   0.2% |
  Multipole moments:                 0.001     0.001   0.0% |
  Pseudo density:                    5.399     5.399   2.9% ||
   Symmetrize density:               0.000     0.000   0.0% |
 Hamiltonian:                        2.546     0.007   0.0% |
  Atomic:                            1.581     0.009   0.0% |
   XC Correction:                    1.572     1.572   0.8% |
  Calculate atomic Hamiltonians:     0.213     0.213   0.1% |
  Communicate:                       0.000     0.000   0.0% |
  Poisson:                           0.008     0.008   0.0% |
  XC 3D grid:                        0.736     0.736   0.4% |
 Orthonormalize:                     0.596     0.010   0.0% |
  calc_s_matrix:                     0.082     0.082   0.0% |
  inverse-cholesky:                  0.014     0.014   0.0% |
  projections:                       0.381     0.381   0.2% |
  rotate_psi_s:                      0.108     0.108   0.1% |
Set symmetry:                        0.003     0.003   0.0% |
Other:                               0.287     0.287   0.2% |
-----------------------------------------------------------
Total:                                       187.922 100.0%

Memory usage: 819.95 MiB
Date: Fri Jul 24 00:04:37 2026
