
  ___ ___ ___ _ _ _  
 |   |   |_  | | | | 
 | | | | | . | | | | 
 |__ |  _|___|_____|  25.7.0
 |___|_|             

User:   buyer@DESKTOP-3EQA59H
Date:   Fri Jul 24 01:02:52 2026
Arch:   x86_64
Pid:    14237
CWD:    /mnt/c/Users/Buyer/dft-si
Python: 3.11.15
gpaw:   /home/buyer/miniconda3/envs/dft/lib/python3.11/site-packages/gpaw
_gpaw:  /home/buyer/miniconda3/envs/dft/lib/python3.11/site-packages/
        _gpaw.cpython-311-x86_64-linux-gnu.so
ase:    /home/buyer/miniconda3/envs/dft/lib/python3.11/site-packages/ase (version 3.29.0)
numpy:  /home/buyer/miniconda3/envs/dft/lib/python3.11/site-packages/numpy (version 2.4.6)
scipy:  /home/buyer/miniconda3/envs/dft/lib/python3.11/site-packages/scipy (version 1.17.1)
libxc:  7.0.0
units:  Angstrom and eV
cores: 1
OpenMP: True
OMP_NUM_THREADS: 1

Input parameters:
  kpts: [8 8 8]
  mode: {ecut: 600.0,
         name: pw}
  spinpol: True
  symmetry: {point_group: False}
  xc: PBE

System changes: positions, numbers, cell, pbc, initial_charges, initial_magmoms 

Initialize ...

species:
  Fe:
    name: Iron
    id: 37abbd8d6c3c35915a9b583b742da910
    Z: 26.0
    valence: 8
    core: 18
    charge: 0.0
    file: /home/buyer/miniconda3/envs/dft/lib/python3.11/site-packages/gpaw_data/setups/Fe.PBE.gz
    compensation charges: {type: gauss,
                           rc: 0.33,
                           lmax: 2}
    cutoffs: {filter: 2.06,
              core: 2.67}
    projectors:
      #              energy  rcut
      - 4s(2.00)    -5.291   1.164
      - 4p(0.00)    -1.326   1.058
      - 3d(6.00)    -7.505   1.058
      -  s          21.920   1.164
      -  p          25.885   1.058
      -  d          19.706   1.058
  
    # Using partial waves for Fe as LCAO basis

Reference energy: -69238.909200  # eV

Spin-polarized calculation.
Initial magnetic moment: 4.400000

Convergence criteria:
 Maximum [total energy] change in last 3 cyles: 0.0005 eV / valence electron
 Maximum integral of absolute [dens]ity change: 0.0001 electrons / valence electron
 Maximum integral of absolute [eigenst]ate change: 4e-08 eV^2 / valence electron
 Maximum number of scf [iter]ations: 333
 (Square brackets indicate name in SCF output, whereas a 'c' in
 the SCF output indicates the quantity has converged.)

Symmetries present (total): 1

  ( 1  0  0)
  ( 0  1  0)
  ( 0  0  1)

512 k-points: 8 x 8 x 8 Monkhorst-Pack grid
256 k-points in the irreducible part of the Brillouin zone
       k-points in crystal coordinates                weights
   0:     0.06250000   -0.43750000   -0.43750000          2/512
   1:     0.06250000   -0.43750000   -0.31250000          2/512
   2:     0.06250000   -0.43750000   -0.18750000          2/512
   3:     0.06250000   -0.43750000   -0.06250000          2/512
   4:     0.06250000   -0.43750000    0.06250000          2/512
   5:     0.06250000   -0.43750000    0.18750000          2/512
   6:     0.06250000   -0.43750000    0.31250000          2/512
   7:     0.06250000   -0.43750000    0.43750000          2/512
   8:     0.06250000   -0.31250000   -0.43750000          2/512
   9:     0.06250000   -0.31250000   -0.31250000          2/512
          ...
 255:     0.43750000    0.43750000    0.43750000          2/512

Wave functions: Plane wave expansion
  Cutoff energy: 600.000 eV
  Number of coefficients (min, max): 793, 822
  Pulay-stress correction: 0.000000 eV/Ang^3 (de/decut=0.000000)
  Using FFTW library
  ScaLapack parameters: grid=1x1, blocksize=None
  Wavefunction extrapolation:
    Improved wavefunction reuse through dual PAW basis 

Occupation numbers: Fermi-Dirac:
  width: 0.1000  # eV
 

Eigensolver
   Davidson(niter=2) 

Densities:
  Coarse grid: 18*18*18 grid
  Fine grid: 36*36*36 grid
  Total Charge: 0.000000 

Density mixing:
  Method: difference
  Backend: pulay
  Linear mixing parameter: 0.05
  old densities: 5
  Damping of long wavelength oscillations: 50 

Hamiltonian:
  XC and Coulomb potentials evaluated on a 36*36*36 grid
  Using the PBE Exchange-Correlation functional
  External potential:
    NoExternalPotential
 

XC parameters: PBE with 2 nearest neighbor stencil

Memory estimate:
  Process memory now: 860.92 MiB
  Calculator: 145.71 MiB
    Density: 3.04 MiB
      Arrays: 1.56 MiB
      Localized functions: 0.86 MiB
      Mixer: 0.62 MiB
    Hamiltonian: 1.17 MiB
      Arrays: 1.16 MiB
      XC: 0.00 MiB
      Poisson: 0.00 MiB
      vbar: 0.02 MiB
    Wavefunctions: 141.50 MiB
      Arrays psit_nG: 109.17 MiB
      Eigensolver: 0.32 MiB
      Projections: 4.78 MiB
      Projectors: 23.79 MiB
      PW-descriptor: 3.43 MiB

Total number of cores used: 1

Number of atoms: 2
Number of atomic orbitals: 18
Number of bands in calculation: 17
Number of valence electrons: 16
Bands to converge: occupied

... initialized

Initializing position-dependent things.

Density initialized from atomic densities
Creating initial wave functions:
  17 bands from LCAO basis set

                    
                    
                    
                    
           Fe       
                    
       Fe           
                    
                    
                    
                    

Atomic positions and initial magnetic moments

Positions:
   0 Fe    -0.000000    0.000000    0.000000    ( 0.0000,  0.0000,  2.2000)
   1 Fe     1.448807    1.448807    1.448807    ( 0.0000,  0.0000,  2.2000)

Unit cell:
           periodic     x           y           z      points  spacing
  1. axis:    yes    2.897615   -0.000000   -0.000000    18     0.1610
  2. axis:    yes   -0.000000    2.897615   -0.000001    18     0.1610
  3. axis:    yes   -0.000000   -0.000001    2.897615    18     0.1610

  Lengths:   2.897615   2.897615   2.897615
  Angles:   90.000021  90.000015  90.000011

Effective grid spacing dv^(1/3) = 0.1610

     iter     time        total  log10-change:  magmom
                         energy   eigst   dens
iter:   1 01:03:21   -17.754923                   +4.4078
iter:   2 01:03:34   -17.925988   -1.21  -1.50    +4.3633
iter:   3 01:03:46   -17.945561   -1.95  -1.50    +4.3565
iter:   4 01:03:58   -18.363799   -1.60  -1.63    +4.3978
iter:   5 01:04:11   -18.618113   -2.41  -1.24    +4.3751
iter:   6 01:04:24   -18.014204   -1.36  -1.17    +4.4031
iter:   7 01:04:37   -18.007181   -2.45  -2.06    +4.4388
iter:   8 01:04:49   -18.009078c  -3.16  -2.25    +4.3937
iter:   9 01:05:01   -18.015433   -2.86  -2.29    +4.4952
iter:  10 01:05:13   -18.011306c  -3.27  -2.29    +4.5047
iter:  11 01:05:26   -18.010308c  -4.53  -2.71    +4.4958
iter:  12 01:05:39   -18.009848c  -4.81  -3.31    +4.4560
iter:  13 01:05:51   -18.010928c  -4.29  -3.08    +4.5887
iter:  14 01:06:04   -18.010835c  -5.40  -3.20    +4.5962
iter:  15 01:06:17   -18.010788c  -5.82  -3.52    +4.6033
iter:  16 01:06:29   -18.010767c  -6.57  -3.54    +4.6045
iter:  17 01:06:42   -18.010777c  -7.06  -3.70    +4.6045
iter:  18 01:06:54   -18.010743c  -6.10  -3.60    +4.6047
iter:  19 01:07:07   -18.010746c  -8.06c -4.31c   +4.6046

Converged after 19 iterations.

Dipole moment: (0.000006, -0.000004, -0.000003) |e|*Ang

Total magnetic moment: (0.000000, 0.000000, 4.604557)
Local magnetic moments:
   0 Fe ( 0.000000,  0.000000,  2.341451)
   1 Fe ( 0.000000,  0.000000,  2.341451)

Energy contributions relative to reference atoms: (reference = -69238.909200)

Kinetic:        +10.911273
Potential:       -9.286881
External:        +0.000000
XC:             -19.709141
Entropy (-ST):   -0.070620
Local:           +0.109313
SIC:             +0.000000
--------------------------
Free energy:    -18.046056
Extrapolated:   -18.010746

Spin contamination: 0.130063 electrons
Showing only first 2 kpts
                      Up                     Down
 Kpt  Band  Eigenvalues  Occupancy  Eigenvalues  Occupancy
  0     6      8.08223    0.99998     10.68478    0.00000
  0     7      8.22416    0.99991     10.77901    0.00000
  0     8      8.53831    0.99802     11.14497    0.00000
  0     9      9.11567    0.61098     11.42662    0.00000

  1     6      7.92538    1.00000     10.40126    0.00000
  1     7      8.05111    0.99998     10.59133    0.00000
  1     8      8.55170    0.99774     11.19440    0.00000
  1     9      9.13087    0.57430     11.48534    0.00000


Fermi level: 9.16081

No gap
No difference between direct/indirect transitions
Timing:                              incl.     excl.
-----------------------------------------------------------
Hamiltonian:                         0.136     0.000   0.0% |
 Atomic:                             0.091     0.000   0.0% |
  XC Correction:                     0.091     0.091   0.0% |
 Calculate atomic Hamiltonians:      0.001     0.001   0.0% |
 Communicate:                        0.000     0.000   0.0% |
 Initialize Hamiltonian:             0.000     0.000   0.0% |
 Poisson:                            0.000     0.000   0.0% |
 XC 3D grid:                         0.043     0.043   0.0% |
LCAO initialization:                16.203     0.019   0.0% |
 LCAO eigensolver:                   1.333     0.016   0.0% |
  Calculate projections:             0.018     0.018   0.0% |
  DenseAtomicCorrection:             0.039     0.039   0.0% |
  Distribute overlap matrix:         0.006     0.006   0.0% |
  Orbital Layouts:                   0.101     0.101   0.0% |
  Potential matrix:                  0.629     0.629   0.2% |
  Sum over cells:                    0.524     0.524   0.2% |
 LCAO to grid:                      14.223    14.223   5.6% |-|
 Set positions (LCAO WFS):           0.628     0.091   0.0% |
  Basic WFS set positions:           0.000     0.000   0.0% |
  Basis functions set positions:     0.000     0.000   0.0% |
  P tci:                             0.196     0.196   0.1% |
  ST tci:                            0.334     0.334   0.1% |
  mktci:                             0.007     0.007   0.0% |
PWDescriptor:                        0.031     0.031   0.0% |
SCF-cycle:                         237.984     1.840   0.7% |
 Davidson:                         224.274    34.622  13.6% |----|
  Apply H:                          32.391    31.108  12.2% |----|
   HMM T:                            1.283     1.283   0.5% |
  Subspace diag:                    41.446     0.561   0.2% |
   calc_h_matrix:                   35.994     3.568   1.4% ||
    Apply H:                        32.425    31.032  12.2% |----|
     HMM T:                          1.393     1.393   0.5% |
   diagonalize:                      1.991     1.991   0.8% |
   rotate_psi:                       2.900     2.900   1.1% |
  calc. matrices:                   79.962    15.470   6.1% |-|
   Apply H:                         64.492    61.920  24.3% |---------|
    HMM T:                           2.572     2.572   1.0% |
  diagonalize:                      30.938    30.938  12.1% |----|
  rotate_psi:                        4.916     4.916   1.9% ||
 Density:                            9.039     0.000   0.0% |
  Atomic density matrices:           0.188     0.188   0.1% |
  Mix:                               0.041     0.041   0.0% |
  Multipole moments:                 0.001     0.001   0.0% |
  Pseudo density:                    8.809     8.809   3.5% ||
   Symmetrize density:               0.000     0.000   0.0% |
 Hamiltonian:                        2.441     0.004   0.0% |
  Atomic:                            1.667     0.007   0.0% |
   XC Correction:                    1.659     1.659   0.7% |
  Calculate atomic Hamiltonians:     0.017     0.017   0.0% |
  Communicate:                       0.000     0.000   0.0% |
  Poisson:                           0.002     0.002   0.0% |
  XC 3D grid:                        0.751     0.751   0.3% |
 Orthonormalize:                     0.390     0.027   0.0% |
  calc_s_matrix:                     0.080     0.080   0.0% |
  inverse-cholesky:                  0.047     0.047   0.0% |
  projections:                       0.150     0.150   0.1% |
  rotate_psi_s:                      0.087     0.087   0.0% |
Set symmetry:                        0.005     0.005   0.0% |
Other:                               0.582     0.582   0.2% |
-----------------------------------------------------------
Total:                                       254.942 100.0%

Memory usage: 860.92 MiB
Date: Fri Jul 24 01:07:07 2026
