
  ___ ___ ___ _ _ _  
 |   |   |_  | | | | 
 | | | | | . | | | | 
 |__ |  _|___|_____|  25.7.0
 |___|_|             

User:   buyer@DESKTOP-3EQA59H
Date:   Thu Jul 23 23:37:41 2026
Arch:   x86_64
Pid:    14237
CWD:    /mnt/c/Users/Buyer/dft-si
Python: 3.11.15
gpaw:   /home/buyer/miniconda3/envs/dft/lib/python3.11/site-packages/gpaw
_gpaw:  /home/buyer/miniconda3/envs/dft/lib/python3.11/site-packages/
        _gpaw.cpython-311-x86_64-linux-gnu.so
ase:    /home/buyer/miniconda3/envs/dft/lib/python3.11/site-packages/ase (version 3.29.0)
numpy:  /home/buyer/miniconda3/envs/dft/lib/python3.11/site-packages/numpy (version 2.4.6)
scipy:  /home/buyer/miniconda3/envs/dft/lib/python3.11/site-packages/scipy (version 1.17.1)
libxc:  7.0.0
units:  Angstrom and eV
cores: 1
OpenMP: True
OMP_NUM_THREADS: 1

Input parameters:
  kpts: [6 6 6]
  mode: {ecut: 800.0,
         name: pw}
  symmetry: {point_group: False}
  xc: PBE

System changes: positions, numbers, cell, pbc, initial_charges, initial_magmoms 

Initialize ...

species:
  C:
    name: Carbon
    id: 4aa54d4b901d75f77cc0ea3eec22967b
    Z: 6.0
    valence: 4
    core: 2
    charge: 0.0
    file: /home/buyer/miniconda3/envs/dft/lib/python3.11/site-packages/gpaw_data/setups/C.PBE.gz
    compensation charges: {type: gauss,
                           rc: 0.20,
                           lmax: 2}
    cutoffs: {filter: 1.14,
              core: 1.14}
    projectors:
      #              energy  rcut
      - 2s(2.00)   -13.751   0.635
      - 2p(2.00)    -5.284   0.635
      -  s          13.461   0.635
      -  p          21.927   0.635
      -  d           0.000   0.635
  
    # Using partial waves for C as LCAO basis

Reference energy: -8221.024924  # eV

Spin-paired calculation

Convergence criteria:
 Maximum [total energy] change in last 3 cyles: 0.0005 eV / valence electron
 Maximum integral of absolute [dens]ity change: 0.0001 electrons / valence electron
 Maximum integral of absolute [eigenst]ate change: 4e-08 eV^2 / valence electron
 Maximum number of scf [iter]ations: 333
 (Square brackets indicate name in SCF output, whereas a 'c' in
 the SCF output indicates the quantity has converged.)

Symmetries present (total): 1

  ( 1  0  0)
  ( 0  1  0)
  ( 0  0  1)

216 k-points: 6 x 6 x 6 Monkhorst-Pack grid
108 k-points in the irreducible part of the Brillouin zone
       k-points in crystal coordinates                weights
   0:     0.08333333   -0.41666667   -0.41666667          2/216
   1:     0.08333333   -0.41666667   -0.25000000          2/216
   2:     0.08333333   -0.41666667   -0.08333333          2/216
   3:     0.08333333   -0.41666667    0.08333333          2/216
   4:     0.08333333   -0.41666667    0.25000000          2/216
   5:     0.08333333   -0.41666667    0.41666667          2/216
   6:     0.08333333   -0.25000000   -0.41666667          2/216
   7:     0.08333333   -0.25000000   -0.25000000          2/216
   8:     0.08333333   -0.25000000   -0.08333333          2/216
   9:     0.08333333   -0.25000000    0.08333333          2/216
          ...
 107:     0.41666667    0.41666667    0.41666667          2/216

Wave functions: Plane wave expansion
  Cutoff energy: 800.000 eV
  Number of coefficients (min, max): 2253, 2284
  Pulay-stress correction: 0.000000 eV/Ang^3 (de/decut=0.000000)
  Using FFTW library
  ScaLapack parameters: grid=1x1, blocksize=None
  Wavefunction extrapolation:
    Improved wavefunction reuse through dual PAW basis 

Occupation numbers: Fermi-Dirac:
  width: 0.1000  # eV
 

Eigensolver
   Davidson(niter=2) 

Densities:
  Coarse grid: 24*24*24 grid
  Fine grid: 48*48*48 grid
  Total Charge: 0.000000 

Density mixing:
  Method: separate
  Backend: pulay
  Linear mixing parameter: 0.05
  old densities: 5
  Damping of long wavelength oscillations: 50 

Hamiltonian:
  XC and Coulomb potentials evaluated on a 48*48*48 grid
  Using the PBE Exchange-Correlation functional
  External potential:
    NoExternalPotential
 

XC parameters: PBE with 2 nearest neighbor stencil

Memory estimate:
  Process memory now: 555.69 MiB
  Calculator: 134.04 MiB
    Density: 6.20 MiB
      Arrays: 2.74 MiB
      Localized functions: 2.40 MiB
      Mixer: 1.05 MiB
    Hamiltonian: 1.84 MiB
      Arrays: 1.79 MiB
      XC: 0.00 MiB
      Poisson: 0.00 MiB
      vbar: 0.05 MiB
    Wavefunctions: 126.00 MiB
      Arrays psit_nG: 90.33 MiB
      Eigensolver: 1.10 MiB
      Projections: 4.11 MiB
      Projectors: 26.16 MiB
      PW-descriptor: 4.29 MiB

Total number of cores used: 1

Number of atoms: 8
Number of atomic orbitals: 32
Number of bands in calculation: 24
Number of valence electrons: 32
Bands to converge: occupied

... initialized

Initializing position-dependent things.

Density initialized from atomic densities
Creating initial wave functions:
  24 bands from LCAO basis set

                        
                        
                        
                        
           C            
        C     C         
           C   C        
          C C           
       C                
                        
                        
                        
                        

Atomic positions and initial magnetic moments

Positions:
   0 C      0.000029    0.000014    0.000015    ( 0.0000,  0.0000,  0.0000)
   1 C      0.883741    0.883622    0.883632    ( 0.0000,  0.0000,  0.0000)
   2 C      0.000024    1.767328    1.767256    ( 0.0000,  0.0000,  0.0000)
   3 C      0.883703    2.650956    2.650906    ( 0.0000,  0.0000,  0.0000)
   4 C      1.767318    0.000013    1.767254    ( 0.0000,  0.0000,  0.0000)
   5 C      2.650810    0.883603    2.650920    ( 0.0000,  0.0000,  0.0000)
   6 C      1.767302    1.767276    0.000068    ( 0.0000,  0.0000,  0.0000)
   7 C      2.650808    2.650930    0.883683    ( 0.0000,  0.0000,  0.0000)

Unit cell:
           periodic     x           y           z      points  spacing
  1. axis:    yes    3.534565    0.000006    0.000006    24     0.1473
  2. axis:    yes    0.000006    3.534569    0.000005    24     0.1473
  3. axis:    yes    0.000006    0.000005    3.534567    24     0.1473

  Lengths:   3.534565   3.534569   3.534567
  Angles:   89.999840  89.999793  89.999805

Effective grid spacing dv^(1/3) = 0.1473

     iter     time        total  log10-change:
                         energy   eigst   dens
iter:   1 23:38:15   -74.863060
iter:   2 23:38:22   -74.590266   -2.12  -0.83
iter:   3 23:38:29   -73.139055   -0.62  -0.85
iter:   4 23:38:36   -73.130149   -2.45  -1.25
iter:   5 23:38:43   -72.870459   -2.54  -1.25
iter:   6 23:38:49   -73.015177   -2.85  -1.46
iter:   7 23:38:56   -73.304542   -2.37  -1.34
iter:   8 23:39:03   -73.249621   -4.42  -1.18
iter:   9 23:39:10   -72.717853   -1.44  -1.20
iter:  10 23:39:17   -72.718469   -3.87  -2.71
iter:  11 23:39:24   -72.718452c  -5.11  -2.64
iter:  12 23:39:30   -72.718082c  -4.11  -2.66
iter:  13 23:39:37   -72.718306c  -4.48  -3.14
iter:  14 23:39:44   -72.718040c  -4.99  -2.92
iter:  15 23:39:51   -72.718032c  -6.15  -3.51
iter:  16 23:39:58   -72.718058c  -5.43  -3.56
iter:  17 23:40:05   -72.718050c  -6.16  -3.69
iter:  18 23:40:12   -72.718050c  -7.18  -3.87
iter:  19 23:40:19   -72.718051c  -8.29c -3.92
iter:  20 23:40:26   -72.718051c  -8.82c -4.02c

Converged after 20 iterations.

Dipole moment: (-0.001521, -0.000705, -0.002319) |e|*Ang

Energy contributions relative to reference atoms: (reference = -8221.024924)

Kinetic:        +76.985057
Potential:      -70.689226
External:        +0.000000
XC:             -79.190984
Entropy (-ST):   -0.000000
Local:           +0.177102
SIC:             +0.000000
--------------------------
Free energy:    -72.718051
Extrapolated:   -72.718051

Showing only first 2 kpts
 Kpt  Band  Eigenvalues  Occupancy
  0    14      8.88538    2.00000
  0    15     10.30017    2.00000
  0    16     19.82206    0.00000
  0    17     21.23230    0.00000

  1    14      8.45982    2.00000
  1    15     10.47653    2.00000
  1    16     19.03500    0.00000
  1    17     19.43224    0.00000


Fermi level: 15.04540

Gap: 5.006 eV
Transition (v -> c):
  (s=0, k=14, n=15, [0.08, -0.08, -0.08]) -> (s=0, k=56, n=16, [0.25, 0.08, -0.08])
Direct/indirect transitions are different
Direct gap: 5.164 eV
Transition at: (s=0, k=14, n=15, [0.08, -0.08, -0.08])
Timing:                              incl.     excl.
-----------------------------------------------------------
Hamiltonian:                         0.165     0.000   0.0% |
 Atomic:                             0.108     0.001   0.0% |
  XC Correction:                     0.107     0.107   0.1% |
 Calculate atomic Hamiltonians:      0.010     0.010   0.0% |
 Communicate:                        0.000     0.000   0.0% |
 Initialize Hamiltonian:             0.000     0.000   0.0% |
 Poisson:                            0.000     0.000   0.0% |
 XC 3D grid:                         0.047     0.047   0.0% |
LCAO initialization:                27.462     0.007   0.0% |
 LCAO eigensolver:                   1.451     0.003   0.0% |
  Calculate projections:             0.007     0.007   0.0% |
  DenseAtomicCorrection:             0.022     0.022   0.0% |
  Distribute overlap matrix:         0.002     0.002   0.0% |
  Orbital Layouts:                   0.124     0.124   0.1% |
  Potential matrix:                  1.184     1.184   0.7% |
  Sum over cells:                    0.110     0.110   0.1% |
 LCAO to grid:                      23.981    23.981  14.5% |-----|
 Set positions (LCAO WFS):           2.024     0.272   0.2% |
  Basic WFS set positions:           0.000     0.000   0.0% |
  Basis functions set positions:     0.000     0.000   0.0% |
  P tci:                             0.709     0.709   0.4% |
  ST tci:                            1.028     1.028   0.6% |
  mktci:                             0.015     0.015   0.0% |
PWDescriptor:                        0.034     0.034   0.0% |
SCF-cycle:                         137.202     0.177   0.1% |
 Davidson:                         127.525    27.703  16.8% |------|
  Apply H:                          17.597    16.965  10.3% |---|
   HMM T:                            0.632     0.632   0.4% |
  Subspace diag:                    23.580     0.164   0.1% |
   calc_h_matrix:                   19.501     1.733   1.0% |
    Apply H:                        17.768    17.060  10.3% |---|
     HMM T:                          0.709     0.709   0.4% |
   diagonalize:                      0.641     0.641   0.4% |
   rotate_psi:                       3.274     3.274   2.0% ||
  calc. matrices:                   44.765     9.016   5.5% |-|
   Apply H:                         35.748    34.360  20.8% |-------|
    HMM T:                           1.388     1.388   0.8% |
  diagonalize:                       8.938     8.938   5.4% |-|
  rotate_psi:                        4.941     4.941   3.0% ||
 Density:                            6.092     0.000   0.0% |
  Atomic density matrices:           0.180     0.180   0.1% |
  Mix:                               0.386     0.386   0.2% |
  Multipole moments:                 0.002     0.002   0.0% |
  Pseudo density:                    5.524     5.524   3.3% ||
   Symmetrize density:               0.000     0.000   0.0% |
 Hamiltonian:                        2.982     0.009   0.0% |
  Atomic:                            2.048     0.014   0.0% |
   XC Correction:                    2.034     2.034   1.2% |
  Calculate atomic Hamiltonians:     0.201     0.201   0.1% |
  Communicate:                       0.000     0.000   0.0% |
  Poisson:                           0.007     0.007   0.0% |
  XC 3D grid:                        0.717     0.717   0.4% |
 Orthonormalize:                     0.426     0.007   0.0% |
  calc_s_matrix:                     0.062     0.062   0.0% |
  inverse-cholesky:                  0.013     0.013   0.0% |
  projections:                       0.266     0.266   0.2% |
  rotate_psi_s:                      0.078     0.078   0.0% |
Set symmetry:                        0.004     0.004   0.0% |
Other:                               0.204     0.204   0.1% |
-----------------------------------------------------------
Total:                                       165.072 100.0%

Memory usage: 562.07 MiB
Date: Thu Jul 23 23:40:26 2026
