
  ___ ___ ___ _ _ _  
 |   |   |_  | | | | 
 | | | | | . | | | | 
 |__ |  _|___|_____|  25.7.0
 |___|_|             

User:   buyer@DESKTOP-3EQA59H
Date:   Fri Jul 24 00:04:37 2026
Arch:   x86_64
Pid:    14237
CWD:    /mnt/c/Users/Buyer/dft-si
Python: 3.11.15
gpaw:   /home/buyer/miniconda3/envs/dft/lib/python3.11/site-packages/gpaw
_gpaw:  /home/buyer/miniconda3/envs/dft/lib/python3.11/site-packages/
        _gpaw.cpython-311-x86_64-linux-gnu.so
ase:    /home/buyer/miniconda3/envs/dft/lib/python3.11/site-packages/ase (version 3.29.0)
numpy:  /home/buyer/miniconda3/envs/dft/lib/python3.11/site-packages/numpy (version 2.4.6)
scipy:  /home/buyer/miniconda3/envs/dft/lib/python3.11/site-packages/scipy (version 1.17.1)
libxc:  7.0.0
units:  Angstrom and eV
cores: 1
OpenMP: True
OMP_NUM_THREADS: 1

Input parameters:
  kpts: [6 6 6]
  mode: {ecut: 500.0,
         name: pw}
  symmetry: {point_group: False}
  xc: PBE

System changes: positions, numbers, cell, pbc, initial_charges, initial_magmoms 

Initialize ...

species:
  Si:
    name: Silicon
    id: ee77bee481871cc2cb65ac61239ccafa
    Z: 14.0
    valence: 4
    core: 10
    charge: 0.0
    file: /home/buyer/miniconda3/envs/dft/lib/python3.11/site-packages/gpaw_data/setups/Si.PBE.gz
    compensation charges: {type: gauss,
                           rc: 0.33,
                           lmax: 2}
    cutoffs: {filter: 1.86,
              core: 2.06}
    projectors:
      #              energy  rcut
      - 3s(2.00)   -10.812   1.058
      - 3p(2.00)    -4.081   1.058
      -  s          16.399   1.058
      -  p          23.130   1.058
      -  d           0.000   1.058
  
    # Using partial waves for Si as LCAO basis

Reference energy: -63090.754002  # eV

Spin-paired calculation

Convergence criteria:
 Maximum [total energy] change in last 3 cyles: 0.0005 eV / valence electron
 Maximum integral of absolute [dens]ity change: 0.0001 electrons / valence electron
 Maximum integral of absolute [eigenst]ate change: 4e-08 eV^2 / valence electron
 Maximum number of scf [iter]ations: 333
 (Square brackets indicate name in SCF output, whereas a 'c' in
 the SCF output indicates the quantity has converged.)

Symmetries present (total): 1

  ( 1  0  0)
  ( 0  1  0)
  ( 0  0  1)

216 k-points: 6 x 6 x 6 Monkhorst-Pack grid
108 k-points in the irreducible part of the Brillouin zone
       k-points in crystal coordinates                weights
   0:     0.08333333   -0.41666667   -0.41666667          2/216
   1:     0.08333333   -0.41666667   -0.25000000          2/216
   2:     0.08333333   -0.41666667   -0.08333333          2/216
   3:     0.08333333   -0.41666667    0.08333333          2/216
   4:     0.08333333   -0.41666667    0.25000000          2/216
   5:     0.08333333   -0.41666667    0.41666667          2/216
   6:     0.08333333   -0.25000000   -0.41666667          2/216
   7:     0.08333333   -0.25000000   -0.25000000          2/216
   8:     0.08333333   -0.25000000   -0.08333333          2/216
   9:     0.08333333   -0.25000000    0.08333333          2/216
          ...
 107:     0.41666667    0.41666667    0.41666667          2/216

Wave functions: Plane wave expansion
  Cutoff energy: 500.000 eV
  Number of coefficients (min, max): 4145, 4180
  Pulay-stress correction: 0.000000 eV/Ang^3 (de/decut=0.000000)
  Using FFTW library
  ScaLapack parameters: grid=1x1, blocksize=None
  Wavefunction extrapolation:
    Improved wavefunction reuse through dual PAW basis 

Occupation numbers: Fermi-Dirac:
  width: 0.1000  # eV
 

Eigensolver
   Davidson(niter=2) 

Densities:
  Coarse grid: 30*30*30 grid
  Fine grid: 60*60*60 grid
  Total Charge: 0.000000 

Density mixing:
  Method: separate
  Backend: pulay
  Linear mixing parameter: 0.05
  old densities: 5
  Damping of long wavelength oscillations: 50 

Hamiltonian:
  XC and Coulomb potentials evaluated on a 60*60*60 grid
  Using the PBE Exchange-Correlation functional
  External potential:
    NoExternalPotential
 

XC parameters: PBE with 2 nearest neighbor stencil

Memory estimate:
  Process memory now: 819.95 MiB
  Calculator: 242.75 MiB
    Density: 11.81 MiB
      Arrays: 5.36 MiB
      Localized functions: 4.39 MiB
      Mixer: 2.06 MiB
    Hamiltonian: 3.59 MiB
      Arrays: 3.50 MiB
      XC: 0.00 MiB
      Poisson: 0.00 MiB
      vbar: 0.09 MiB
    Wavefunctions: 227.35 MiB
      Arrays psit_nG: 165.32 MiB
      Eigensolver: 1.94 MiB
      Projections: 4.11 MiB
      Projectors: 48.06 MiB
      PW-descriptor: 7.92 MiB

Total number of cores used: 1

Number of atoms: 8
Number of atomic orbitals: 32
Number of bands in calculation: 24
Number of valence electrons: 32
Bands to converge: occupied

... initialized

Initializing position-dependent things.

Density initialized from atomic densities
Creating initial wave functions:
  24 bands from LCAO basis set

                             
                             
                             
                             
             Si              
                  Si         
         Si                  
                    Si       
              Si             
           Si                
                Si           
       Si                    
                             
                             
                             
                             

Atomic positions and initial magnetic moments

Positions:
   0 Si    -0.000024   -0.000108    0.000107    ( 0.0000,  0.0000,  0.0000)
   1 Si     1.368297    1.368477    1.368508    ( 0.0000,  0.0000,  0.0000)
   2 Si    -0.000016    2.737187    2.736993    ( 0.0000,  0.0000,  0.0000)
   3 Si     1.368287    4.105704    4.105653    ( 0.0000,  0.0000,  0.0000)
   4 Si     2.737097   -0.000126    2.736966    ( 0.0000,  0.0000,  0.0000)
   5 Si     4.105912    1.368472    4.105656    ( 0.0000,  0.0000,  0.0000)
   6 Si     2.737088    2.737196    0.000132    ( 0.0000,  0.0000,  0.0000)
   7 Si     4.105870    4.105711    1.368513    ( 0.0000,  0.0000,  0.0000)

Unit cell:
           periodic     x           y           z      points  spacing
  1. axis:    yes    5.474171   -0.000002    0.000003    30     0.1825
  2. axis:    yes   -0.000002    5.474171    0.000003    30     0.1825
  3. axis:    yes    0.000003    0.000003    5.474171    30     0.1825

  Lengths:   5.474171   5.474171   5.474171
  Angles:   89.999945  89.999946  90.000052

Effective grid spacing dv^(1/3) = 0.1825

     iter     time        total  log10-change:
                         energy   eigst   dens
iter:   1 00:05:12   -43.492734
iter:   2 00:05:24   -43.512655   -1.86  -0.81
iter:   3 00:05:35   -43.602531   -1.40  -0.81
iter:   4 00:05:47   -43.362853   -3.06  -0.98
iter:   5 00:05:58   -43.326042   -4.05  -1.23
iter:   6 00:06:10   -43.196926   -2.55  -1.31
iter:   7 00:06:22   -43.197108   -4.34  -2.67
iter:   8 00:06:34   -43.196863c  -4.88  -2.61
iter:   9 00:06:45   -43.196899c  -5.68  -3.56
iter:  10 00:06:57   -43.196876c  -6.83  -3.21
iter:  11 00:07:09   -43.196875c  -7.61c -3.59
iter:  12 00:07:20   -43.196871c  -6.99  -3.64
iter:  13 00:07:32   -43.196871c  -8.08c -4.02c

Converged after 13 iterations.

Dipole moment: (0.001196, 0.006830, -0.006893) |e|*Ang

Energy contributions relative to reference atoms: (reference = -63090.754002)

Kinetic:        +53.118934
Potential:      -47.428831
External:        +0.000000
XC:             -48.792518
Entropy (-ST):   -0.002427
Local:           -0.093242
SIC:             +0.000000
--------------------------
Free energy:    -43.198085
Extrapolated:   -43.196871

Showing only first 2 kpts
 Kpt  Band  Eigenvalues  Occupancy
  0    14      3.46579    2.00000
  0    15      4.17104    1.99999
  0    16      7.11027    0.00000
  0    17      7.81253    0.00000

  1    14      3.21022    2.00000
  1    15      4.11868    1.99999
  1    16      7.20925    0.00000
  1    17      7.22900    0.00000


Fermi level: 5.39432

Gap: 0.953 eV
Transition (v -> c):
  (s=0, k=15, n=15, [0.08, -0.08, 0.08]) -> (s=0, k=14, n=16, [0.08, -0.08, -0.08])
Direct/indirect transitions are different
Direct gap: 0.953 eV
Transition at: (s=0, k=14, n=15, [0.08, -0.08, -0.08])
Timing:                              incl.     excl.
-----------------------------------------------------------
Hamiltonian:                         0.272     0.001   0.0% |
 Atomic:                             0.145     0.001   0.0% |
  XC Correction:                     0.144     0.144   0.1% |
 Calculate atomic Hamiltonians:      0.020     0.020   0.0% |
 Communicate:                        0.000     0.000   0.0% |
 Initialize Hamiltonian:             0.000     0.000   0.0% |
 Poisson:                            0.001     0.001   0.0% |
 XC 3D grid:                         0.106     0.106   0.1% |
LCAO initialization:                18.785     0.008   0.0% |
 LCAO eigensolver:                   0.668     0.003   0.0% |
  Calculate projections:             0.007     0.007   0.0% |
  DenseAtomicCorrection:             0.023     0.023   0.0% |
  Distribute overlap matrix:         0.002     0.002   0.0% |
  Orbital Layouts:                   0.340     0.340   0.2% |
  Potential matrix:                  0.173     0.173   0.1% |
  Sum over cells:                    0.119     0.119   0.1% |
 LCAO to grid:                      17.104    17.104   9.8% |---|
 Set positions (LCAO WFS):           1.005     0.112   0.1% |
  Basic WFS set positions:           0.000     0.000   0.0% |
  Basis functions set positions:     0.000     0.000   0.0% |
  P tci:                             0.577     0.577   0.3% |
  ST tci:                            0.309     0.309   0.2% |
  mktci:                             0.006     0.006   0.0% |
PWDescriptor:                        0.059     0.059   0.0% |
SCF-cycle:                         155.600     0.244   0.1% |
 Davidson:                         144.467    27.712  15.8% |-----|
  Apply H:                          22.741    22.087  12.6% |----|
   HMM T:                            0.654     0.654   0.4% |
  Subspace diag:                    27.450     0.118   0.1% |
   calc_h_matrix:                   24.106     1.438   0.8% |
    Apply H:                        22.668    21.964  12.5% |----|
     HMM T:                          0.704     0.704   0.4% |
   diagonalize:                      0.442     0.442   0.3% |
   rotate_psi:                       2.784     2.784   1.6% ||
  calc. matrices:                   54.244     8.394   4.8% |-|
   Apply H:                         45.850    44.382  25.4% |---------|
    HMM T:                           1.469     1.469   0.8% |
  diagonalize:                       7.194     7.194   4.1% |-|
  rotate_psi:                        5.125     5.125   2.9% ||
 Density:                            7.078     0.000   0.0% |
  Atomic density matrices:           0.109     0.109   0.1% |
  Mix:                               0.318     0.318   0.2% |
  Multipole moments:                 0.001     0.001   0.0% |
  Pseudo density:                    6.650     6.650   3.8% |-|
   Symmetrize density:               0.000     0.000   0.0% |
 Hamiltonian:                        2.563     0.009   0.0% |
  Atomic:                            1.565     0.009   0.0% |
   XC Correction:                    1.556     1.556   0.9% |
  Calculate atomic Hamiltonians:     0.169     0.169   0.1% |
  Communicate:                       0.000     0.000   0.0% |
  Poisson:                           0.008     0.008   0.0% |
  XC 3D grid:                        0.812     0.812   0.5% |
 Orthonormalize:                     1.248     0.010   0.0% |
  calc_s_matrix:                     0.104     0.104   0.1% |
  inverse-cholesky:                  0.015     0.015   0.0% |
  projections:                       0.901     0.901   0.5% |
  rotate_psi_s:                      0.218     0.218   0.1% |
Set symmetry:                        0.002     0.002   0.0% |
Other:                               0.312     0.312   0.2% |
-----------------------------------------------------------
Total:                                       175.030 100.0%

Memory usage: 836.88 MiB
Date: Fri Jul 24 00:07:32 2026
