
  ___ ___ ___ _ _ _  
 |   |   |_  | | | | 
 | | | | | . | | | | 
 |__ |  _|___|_____|  25.7.0
 |___|_|             

User:   buyer@DESKTOP-3EQA59H
Date:   Thu Jul 23 23:40:26 2026
Arch:   x86_64
Pid:    14237
CWD:    /mnt/c/Users/Buyer/dft-si
Python: 3.11.15
gpaw:   /home/buyer/miniconda3/envs/dft/lib/python3.11/site-packages/gpaw
_gpaw:  /home/buyer/miniconda3/envs/dft/lib/python3.11/site-packages/
        _gpaw.cpython-311-x86_64-linux-gnu.so
ase:    /home/buyer/miniconda3/envs/dft/lib/python3.11/site-packages/ase (version 3.29.0)
numpy:  /home/buyer/miniconda3/envs/dft/lib/python3.11/site-packages/numpy (version 2.4.6)
scipy:  /home/buyer/miniconda3/envs/dft/lib/python3.11/site-packages/scipy (version 1.17.1)
libxc:  7.0.0
units:  Angstrom and eV
cores: 1
OpenMP: True
OMP_NUM_THREADS: 1

Input parameters:
  kpts: [6 6 6]
  mode: {ecut: 800.0,
         name: pw}
  symmetry: {point_group: False}
  xc: PBE

System changes: positions, numbers, cell, pbc, initial_charges, initial_magmoms 

Initialize ...

species:
  C:
    name: Carbon
    id: 4aa54d4b901d75f77cc0ea3eec22967b
    Z: 6.0
    valence: 4
    core: 2
    charge: 0.0
    file: /home/buyer/miniconda3/envs/dft/lib/python3.11/site-packages/gpaw_data/setups/C.PBE.gz
    compensation charges: {type: gauss,
                           rc: 0.20,
                           lmax: 2}
    cutoffs: {filter: 1.14,
              core: 1.14}
    projectors:
      #              energy  rcut
      - 2s(2.00)   -13.751   0.635
      - 2p(2.00)    -5.284   0.635
      -  s          13.461   0.635
      -  p          21.927   0.635
      -  d           0.000   0.635
  
    # Using partial waves for C as LCAO basis

Reference energy: -8221.024924  # eV

Spin-paired calculation

Convergence criteria:
 Maximum [total energy] change in last 3 cyles: 0.0005 eV / valence electron
 Maximum integral of absolute [dens]ity change: 0.0001 electrons / valence electron
 Maximum integral of absolute [eigenst]ate change: 4e-08 eV^2 / valence electron
 Maximum number of scf [iter]ations: 333
 (Square brackets indicate name in SCF output, whereas a 'c' in
 the SCF output indicates the quantity has converged.)

Symmetries present (total): 1

  ( 1  0  0)
  ( 0  1  0)
  ( 0  0  1)

216 k-points: 6 x 6 x 6 Monkhorst-Pack grid
108 k-points in the irreducible part of the Brillouin zone
       k-points in crystal coordinates                weights
   0:     0.08333333   -0.41666667   -0.41666667          2/216
   1:     0.08333333   -0.41666667   -0.25000000          2/216
   2:     0.08333333   -0.41666667   -0.08333333          2/216
   3:     0.08333333   -0.41666667    0.08333333          2/216
   4:     0.08333333   -0.41666667    0.25000000          2/216
   5:     0.08333333   -0.41666667    0.41666667          2/216
   6:     0.08333333   -0.25000000   -0.41666667          2/216
   7:     0.08333333   -0.25000000   -0.25000000          2/216
   8:     0.08333333   -0.25000000   -0.08333333          2/216
   9:     0.08333333   -0.25000000    0.08333333          2/216
          ...
 107:     0.41666667    0.41666667    0.41666667          2/216

Wave functions: Plane wave expansion
  Cutoff energy: 800.000 eV
  Number of coefficients (min, max): 2332, 2361
  Pulay-stress correction: 0.000000 eV/Ang^3 (de/decut=0.000000)
  Using FFTW library
  ScaLapack parameters: grid=1x1, blocksize=None
  Wavefunction extrapolation:
    Improved wavefunction reuse through dual PAW basis 

Occupation numbers: Fermi-Dirac:
  width: 0.1000  # eV
 

Eigensolver
   Davidson(niter=2) 

Densities:
  Coarse grid: 24*24*24 grid
  Fine grid: 48*48*48 grid
  Total Charge: 0.000000 

Density mixing:
  Method: separate
  Backend: pulay
  Linear mixing parameter: 0.05
  old densities: 5
  Damping of long wavelength oscillations: 50 

Hamiltonian:
  XC and Coulomb potentials evaluated on a 48*48*48 grid
  Using the PBE Exchange-Correlation functional
  External potential:
    NoExternalPotential
 

XC parameters: PBE with 2 nearest neighbor stencil

Memory estimate:
  Process memory now: 562.07 MiB
  Calculator: 138.12 MiB
    Density: 6.27 MiB
      Arrays: 2.74 MiB
      Localized functions: 2.47 MiB
      Mixer: 1.05 MiB
    Hamiltonian: 1.84 MiB
      Arrays: 1.79 MiB
      XC: 0.00 MiB
      Poisson: 0.00 MiB
      vbar: 0.05 MiB
    Wavefunctions: 130.01 MiB
      Arrays psit_nG: 93.38 MiB
      Eigensolver: 1.13 MiB
      Projections: 4.11 MiB
      Projectors: 26.96 MiB
      PW-descriptor: 4.42 MiB

Total number of cores used: 1

Number of atoms: 8
Number of atomic orbitals: 32
Number of bands in calculation: 24
Number of valence electrons: 32
Bands to converge: occupied

... initialized

Initializing position-dependent things.

Density initialized from atomic densities
Creating initial wave functions:
  24 bands from LCAO basis set

                        
                        
                        
                        
           C            
        C     C         
           C   C        
          C C           
       C                
                        
                        
                        
                        

Atomic positions and initial magnetic moments

Positions:
   0 C      0.000030    0.000014    0.000015    ( 0.0000,  0.0000,  0.0000)
   1 C      0.892759    0.892639    0.892649    ( 0.0000,  0.0000,  0.0000)
   2 C      0.000024    1.785363    1.785290    ( 0.0000,  0.0000,  0.0000)
   3 C      0.892721    2.678008    2.677958    ( 0.0000,  0.0000,  0.0000)
   4 C      1.785353    0.000013    1.785288    ( 0.0000,  0.0000,  0.0000)
   5 C      2.677861    0.892620    2.677972    ( 0.0000,  0.0000,  0.0000)
   6 C      1.785337    1.785310    0.000069    ( 0.0000,  0.0000,  0.0000)
   7 C      2.677859    2.677982    0.892701    ( 0.0000,  0.0000,  0.0000)

Unit cell:
           periodic     x           y           z      points  spacing
  1. axis:    yes    3.570635    0.000006    0.000006    24     0.1488
  2. axis:    yes    0.000006    3.570638    0.000005    24     0.1488
  3. axis:    yes    0.000006    0.000005    3.570636    24     0.1488

  Lengths:   3.570635   3.570638   3.570636
  Angles:   89.999840  89.999793  89.999805

Effective grid spacing dv^(1/3) = 0.1488

     iter     time        total  log10-change:
                         energy   eigst   dens
iter:   1 23:41:00   -74.732065
iter:   2 23:41:07   -74.486340   -2.11  -0.84
iter:   3 23:41:17   -73.223594   -0.65  -0.86
iter:   4 23:41:26   -73.195789   -2.51  -1.23
iter:   5 23:41:42   -72.954230   -2.62  -1.24
iter:   6 23:41:56   -72.837404   -2.70  -1.43
iter:   7 23:42:06   -73.696274   -1.03  -1.65
iter:   8 23:42:13   -74.177619   -2.22  -1.09
iter:   9 23:42:21   -72.784409   -1.05  -1.00
iter:  10 23:42:27   -72.783192   -2.81  -2.31
iter:  11 23:42:35   -72.783243c  -4.38  -3.55
iter:  12 23:42:43   -72.783238c  -5.30  -3.40
iter:  13 23:42:50   -72.783242c  -6.36  -3.81
iter:  14 23:42:58   -72.783240c  -7.28  -3.78
iter:  15 23:43:05   -72.783239c  -7.00  -4.07c
iter:  16 23:43:12   -72.783240c  -8.81c -4.33c

Converged after 16 iterations.

Dipole moment: (-0.001527, -0.000690, -0.002320) |e|*Ang

Energy contributions relative to reference atoms: (reference = -8221.024924)

Kinetic:        +64.860034
Potential:      -61.527108
External:        +0.000000
XC:             -76.284845
Entropy (-ST):   -0.000000
Local:           +0.168680
SIC:             +0.000000
--------------------------
Free energy:    -72.783240
Extrapolated:   -72.783240

Showing only first 2 kpts
 Kpt  Band  Eigenvalues  Occupancy
  0    14      8.47294    2.00000
  0    15      9.84713    2.00000
  0    16     19.18492    0.00000
  0    17     20.51987    0.00000

  1    14      8.05300    2.00000
  1    15     10.01065    2.00000
  1    16     18.39952    0.00000
  1    17     18.78882    0.00000


Fermi level: 13.82875

Gap: 4.920 eV
Transition (v -> c):
  (s=0, k=14, n=15, [0.08, -0.08, -0.08]) -> (s=0, k=56, n=16, [0.25, 0.08, -0.08])
Direct/indirect transitions are different
Direct gap: 5.085 eV
Transition at: (s=0, k=14, n=15, [0.08, -0.08, -0.08])
Timing:                              incl.     excl.
-----------------------------------------------------------
Hamiltonian:                         0.157     0.000   0.0% |
 Atomic:                             0.110     0.001   0.0% |
  XC Correction:                     0.110     0.110   0.1% |
 Calculate atomic Hamiltonians:      0.010     0.010   0.0% |
 Communicate:                        0.000     0.000   0.0% |
 Initialize Hamiltonian:             0.000     0.000   0.0% |
 Poisson:                            0.000     0.000   0.0% |
 XC 3D grid:                         0.036     0.036   0.0% |
LCAO initialization:                26.956     0.007   0.0% |
 LCAO eigensolver:                   1.430     0.003   0.0% |
  Calculate projections:             0.007     0.007   0.0% |
  DenseAtomicCorrection:             0.022     0.022   0.0% |
  Distribute overlap matrix:         0.002     0.002   0.0% |
  Orbital Layouts:                   0.183     0.183   0.1% |
  Potential matrix:                  1.105     1.105   0.7% |
  Sum over cells:                    0.109     0.109   0.1% |
 LCAO to grid:                      23.489    23.489  14.2% |-----|
 Set positions (LCAO WFS):           2.030     0.267   0.2% |
  Basic WFS set positions:           0.000     0.000   0.0% |
  Basis functions set positions:     0.000     0.000   0.0% |
  P tci:                             0.767     0.767   0.5% |
  ST tci:                            0.980     0.980   0.6% |
  mktci:                             0.015     0.015   0.0% |
PWDescriptor:                        0.030     0.030   0.0% |
SCF-cycle:                         138.418     0.174   0.1% |
 Davidson:                         130.363    31.092  18.8% |-------|
  Apply H:                          14.493    13.944   8.4% |--|
   HMM T:                            0.549     0.549   0.3% |
  Subspace diag:                    23.278     0.156   0.1% |
   calc_h_matrix:                   16.872     2.214   1.3% ||
    Apply H:                        14.659    13.993   8.4% |--|
     HMM T:                          0.666     0.666   0.4% |
   diagonalize:                      0.549     0.549   0.3% |
   rotate_psi:                       5.701     5.701   3.4% ||
  calc. matrices:                   38.643     9.338   5.6% |-|
   Apply H:                         29.306    28.107  17.0% |------|
    HMM T:                           1.198     1.198   0.7% |
  diagonalize:                      13.159    13.159   7.9% |--|
  rotate_psi:                        9.698     9.698   5.8% |-|
 Density:                            4.841     0.000   0.0% |
  Atomic density matrices:           0.142     0.142   0.1% |
  Mix:                               0.336     0.336   0.2% |
  Multipole moments:                 0.002     0.002   0.0% |
  Pseudo density:                    4.361     4.360   2.6% ||
   Symmetrize density:               0.000     0.000   0.0% |
 Hamiltonian:                        2.623     0.007   0.0% |
  Atomic:                            1.799     0.011   0.0% |
   XC Correction:                    1.787     1.787   1.1% |
  Calculate atomic Hamiltonians:     0.190     0.190   0.1% |
  Communicate:                       0.000     0.000   0.0% |
  Poisson:                           0.006     0.006   0.0% |
  XC 3D grid:                        0.622     0.622   0.4% |
 Orthonormalize:                     0.416     0.009   0.0% |
  calc_s_matrix:                     0.070     0.070   0.0% |
  inverse-cholesky:                  0.013     0.013   0.0% |
  projections:                       0.229     0.229   0.1% |
  rotate_psi_s:                      0.096     0.096   0.1% |
Set symmetry:                        0.002     0.002   0.0% |
Other:                               0.209     0.209   0.1% |
-----------------------------------------------------------
Total:                                       165.773 100.0%

Memory usage: 568.52 MiB
Date: Thu Jul 23 23:43:12 2026
