
  ___ ___ ___ _ _ _  
 |   |   |_  | | | | 
 | | | | | . | | | | 
 |__ |  _|___|_____|  25.7.0
 |___|_|             

User:   buyer@DESKTOP-3EQA59H
Date:   Fri Jul 24 00:49:37 2026
Arch:   x86_64
Pid:    14237
CWD:    /mnt/c/Users/Buyer/dft-si
Python: 3.11.15
gpaw:   /home/buyer/miniconda3/envs/dft/lib/python3.11/site-packages/gpaw
_gpaw:  /home/buyer/miniconda3/envs/dft/lib/python3.11/site-packages/
        _gpaw.cpython-311-x86_64-linux-gnu.so
ase:    /home/buyer/miniconda3/envs/dft/lib/python3.11/site-packages/ase (version 3.29.0)
numpy:  /home/buyer/miniconda3/envs/dft/lib/python3.11/site-packages/numpy (version 2.4.6)
scipy:  /home/buyer/miniconda3/envs/dft/lib/python3.11/site-packages/scipy (version 1.17.1)
libxc:  7.0.0
units:  Angstrom and eV
cores: 1
OpenMP: True
OMP_NUM_THREADS: 1

Input parameters:
  kpts: [8 8 8]
  mode: {ecut: 600.0,
         name: pw}
  spinpol: True
  symmetry: {point_group: False}
  xc: PBE

System changes: positions, numbers, cell, pbc, initial_charges, initial_magmoms 

Initialize ...

species:
  Fe:
    name: Iron
    id: 37abbd8d6c3c35915a9b583b742da910
    Z: 26.0
    valence: 8
    core: 18
    charge: 0.0
    file: /home/buyer/miniconda3/envs/dft/lib/python3.11/site-packages/gpaw_data/setups/Fe.PBE.gz
    compensation charges: {type: gauss,
                           rc: 0.33,
                           lmax: 2}
    cutoffs: {filter: 2.06,
              core: 2.67}
    projectors:
      #              energy  rcut
      - 4s(2.00)    -5.291   1.164
      - 4p(0.00)    -1.326   1.058
      - 3d(6.00)    -7.505   1.058
      -  s          21.920   1.164
      -  p          25.885   1.058
      -  d          19.706   1.058
  
    # Using partial waves for Fe as LCAO basis

Reference energy: -69238.909200  # eV

Spin-polarized calculation.
Initial magnetic moment: 4.400000

Convergence criteria:
 Maximum [total energy] change in last 3 cyles: 0.0005 eV / valence electron
 Maximum integral of absolute [dens]ity change: 0.0001 electrons / valence electron
 Maximum integral of absolute [eigenst]ate change: 4e-08 eV^2 / valence electron
 Maximum number of scf [iter]ations: 333
 (Square brackets indicate name in SCF output, whereas a 'c' in
 the SCF output indicates the quantity has converged.)

Symmetries present (total): 1

  ( 1  0  0)
  ( 0  1  0)
  ( 0  0  1)

512 k-points: 8 x 8 x 8 Monkhorst-Pack grid
256 k-points in the irreducible part of the Brillouin zone
       k-points in crystal coordinates                weights
   0:     0.06250000   -0.43750000   -0.43750000          2/512
   1:     0.06250000   -0.43750000   -0.31250000          2/512
   2:     0.06250000   -0.43750000   -0.18750000          2/512
   3:     0.06250000   -0.43750000   -0.06250000          2/512
   4:     0.06250000   -0.43750000    0.06250000          2/512
   5:     0.06250000   -0.43750000    0.18750000          2/512
   6:     0.06250000   -0.43750000    0.31250000          2/512
   7:     0.06250000   -0.43750000    0.43750000          2/512
   8:     0.06250000   -0.31250000   -0.43750000          2/512
   9:     0.06250000   -0.31250000   -0.31250000          2/512
          ...
 255:     0.43750000    0.43750000    0.43750000          2/512

Wave functions: Plane wave expansion
  Cutoff energy: 600.000 eV
  Number of coefficients (min, max): 756, 778
  Pulay-stress correction: 0.000000 eV/Ang^3 (de/decut=0.000000)
  Using FFTW library
  ScaLapack parameters: grid=1x1, blocksize=None
  Wavefunction extrapolation:
    Improved wavefunction reuse through dual PAW basis 

Occupation numbers: Fermi-Dirac:
  width: 0.1000  # eV
 

Eigensolver
   Davidson(niter=2) 

Densities:
  Coarse grid: 18*18*18 grid
  Fine grid: 36*36*36 grid
  Total Charge: 0.000000 

Density mixing:
  Method: difference
  Backend: pulay
  Linear mixing parameter: 0.05
  old densities: 5
  Damping of long wavelength oscillations: 50 

Hamiltonian:
  XC and Coulomb potentials evaluated on a 36*36*36 grid
  Using the PBE Exchange-Correlation functional
  External potential:
    NoExternalPotential
 

XC parameters: PBE with 2 nearest neighbor stencil

Memory estimate:
  Process memory now: 860.92 MiB
  Calculator: 138.27 MiB
    Density: 2.99 MiB
      Arrays: 1.56 MiB
      Localized functions: 0.81 MiB
      Mixer: 0.62 MiB
    Hamiltonian: 1.17 MiB
      Arrays: 1.16 MiB
      XC: 0.00 MiB
      Poisson: 0.00 MiB
      vbar: 0.02 MiB
    Wavefunctions: 134.11 MiB
      Arrays psit_nG: 103.33 MiB
      Eigensolver: 0.31 MiB
      Projections: 4.78 MiB
      Projectors: 22.43 MiB
      PW-descriptor: 3.26 MiB

Total number of cores used: 1

Number of atoms: 2
Number of atomic orbitals: 18
Number of bands in calculation: 17
Number of valence electrons: 16
Bands to converge: occupied

... initialized

Initializing position-dependent things.

Density initialized from atomic densities
Creating initial wave functions:
  17 bands from LCAO basis set

                    
                    
                    
                    
           Fe       
                    
       Fe           
                    
                    
                    
                    

Atomic positions and initial magnetic moments

Positions:
   0 Fe    -0.000000    0.000000    0.000000    ( 0.0000,  0.0000,  2.2000)
   1 Fe     1.420939    1.420938    1.420938    ( 0.0000,  0.0000,  2.2000)

Unit cell:
           periodic     x           y           z      points  spacing
  1. axis:    yes    2.841877   -0.000000   -0.000000    18     0.1579
  2. axis:    yes   -0.000000    2.841877   -0.000001    18     0.1579
  3. axis:    yes   -0.000000   -0.000001    2.841877    18     0.1579

  Lengths:   2.841877   2.841877   2.841877
  Angles:   90.000021  90.000015  90.000011

Effective grid spacing dv^(1/3) = 0.1579

     iter     time        total  log10-change:  magmom
                         energy   eigst   dens
iter:   1 00:50:07   -17.842239                   +4.4078
iter:   2 00:50:20   -17.999431   -1.17  -1.46    +4.2702
iter:   3 00:50:32   -18.013285   -1.66  -1.47    +4.1843
iter:   4 00:50:45   -18.356992   -1.39  -1.80    +4.2859
iter:   5 00:50:58   -19.717740   -1.37  -1.27    +4.2539
iter:   6 00:51:11   -18.058187   -0.95  -1.07    +4.2463
iter:   7 00:51:23   -18.056199   -2.86  -2.21    +4.2468
iter:   8 00:51:36   -18.054703c  -3.59  -2.36    +4.2707
iter:   9 00:51:49   -18.055369c  -3.85  -2.77    +4.3057
iter:  10 00:52:01   -18.055708c  -4.94  -2.61    +4.3188
iter:  11 00:52:13   -18.055520c  -4.56  -2.62    +4.3927
iter:  12 00:52:26   -18.054853c  -4.29  -2.61    +4.3751
iter:  13 00:52:39   -18.054460c  -4.86  -3.11    +4.4284
iter:  14 00:52:55   -18.055381c  -4.68  -2.87    +4.3485
iter:  15 00:53:09   -18.055630c  -5.48  -2.79    +4.3646
iter:  16 00:53:22   -18.059354c  -4.01  -2.69    +4.3743
iter:  17 00:53:34   -18.058839c  -5.91  -2.35    +4.3627
iter:  18 00:53:47   -18.054594c  -3.76  -2.38    +4.4150
iter:  19 00:53:59   -18.056806c  -4.29  -2.95    +4.3835
iter:  20 00:54:11   -18.054770c  -4.02  -2.57    +4.3845
iter:  21 00:54:24   -18.055384c  -4.34  -3.14    +4.3840
iter:  22 00:54:36   -18.055034c  -4.09  -2.63    +4.3832
iter:  23 00:54:48   -18.054924c  -5.17  -3.02    +4.3835
iter:  24 00:55:00   -18.054881c  -6.61  -3.37    +4.3854
iter:  25 00:55:12   -18.055015c  -5.73  -3.42    +4.3629
iter:  26 00:55:25   -18.055064c  -5.40  -3.42    +4.3482
iter:  27 00:55:38   -18.055070c  -5.58  -3.46    +4.3530
iter:  28 00:55:50   -18.055115c  -6.07  -3.51    +4.3514
iter:  29 00:56:03   -18.055007c  -5.40  -3.37    +4.3566
iter:  30 00:56:16   -18.055003c  -6.61  -3.70    +4.3595
iter:  31 00:56:28   -18.055037c  -6.71  -3.93    +4.3544
iter:  32 00:56:40   -18.055043c  -6.69  -3.93    +4.3499
iter:  33 00:56:52   -18.055053c  -6.79  -4.11c   +4.3512
iter:  34 00:57:05   -18.055052c  -8.03c -4.21c   +4.3507

Converged after 34 iterations.

Dipole moment: (0.000006, -0.000004, -0.000003) |e|*Ang

Total magnetic moment: (0.000000, 0.000000, 4.350708)
Local magnetic moments:
   0 Fe ( 0.000000,  0.000000,  2.212506)
   1 Fe ( 0.000000,  0.000000,  2.212506)

Energy contributions relative to reference atoms: (reference = -69238.909200)

Kinetic:        +14.736702
Potential:      -12.458304
External:        +0.000000
XC:             -20.444137
Entropy (-ST):   -0.062981
Local:           +0.142178
SIC:             +0.000000
--------------------------
Free energy:    -18.086542
Extrapolated:   -18.055052

Spin contamination: 0.115625 electrons
Showing only first 2 kpts
                      Up                     Down
 Kpt  Band  Eigenvalues  Occupancy  Eigenvalues  Occupancy
  0     6      8.90717    0.99998     11.40412    0.00000
  0     7      9.06533    0.99990     11.50572    0.00000
  0     8      9.35199    0.99821     11.89977    0.00000
  0     9     10.02365    0.40284     12.21191    0.00000

  1     6      8.73735    1.00000     11.09748    0.00001
  1     7      8.87495    0.99998     11.30099    0.00000
  1     8      9.41511    0.99664     11.95458    0.00000
  1     9     10.05602    0.32799     12.26795    0.00000


Fermi level: 9.98429

No gap
No difference between direct/indirect transitions
Timing:                              incl.     excl.
-----------------------------------------------------------
Hamiltonian:                         0.136     0.000   0.0% |
 Atomic:                             0.097     0.000   0.0% |
  XC Correction:                     0.096     0.096   0.0% |
 Calculate atomic Hamiltonians:      0.001     0.001   0.0% |
 Communicate:                        0.000     0.000   0.0% |
 Initialize Hamiltonian:             0.000     0.000   0.0% |
 Poisson:                            0.000     0.000   0.0% |
 XC 3D grid:                         0.038     0.038   0.0% |
LCAO initialization:                16.604     0.020   0.0% |
 LCAO eigensolver:                   1.004     0.010   0.0% |
  Calculate projections:             0.010     0.010   0.0% |
  DenseAtomicCorrection:             0.036     0.036   0.0% |
  Distribute overlap matrix:         0.007     0.007   0.0% |
  Orbital Layouts:                   0.098     0.098   0.0% |
  Potential matrix:                  0.704     0.704   0.2% |
  Sum over cells:                    0.139     0.139   0.0% |
 LCAO to grid:                      14.838    14.838   3.3% ||
 Set positions (LCAO WFS):           0.742     0.125   0.0% |
  Basic WFS set positions:           0.000     0.000   0.0% |
  Basis functions set positions:     0.000     0.000   0.0% |
  P tci:                             0.225     0.225   0.1% |
  ST tci:                            0.386     0.386   0.1% |
  mktci:                             0.006     0.006   0.0% |
PWDescriptor:                        0.030     0.030   0.0% |
SCF-cycle:                         430.881     3.232   0.7% |
 Davidson:                         405.873    63.015  14.1% |-----|
  Apply H:                          57.935    55.619  12.4% |----|
   HMM T:                            2.316     2.316   0.5% |
  Subspace diag:                    75.223     1.034   0.2% |
   calc_h_matrix:                   64.266     6.222   1.4% ||
    Apply H:                        58.044    55.491  12.4% |----|
     HMM T:                          2.554     2.554   0.6% |
   diagonalize:                      3.558     3.558   0.8% |
   rotate_psi:                       6.365     6.365   1.4% ||
  calc. matrices:                  143.084    27.594   6.2% |-|
   Apply H:                        115.490   110.811  24.7% |---------|
    HMM T:                           4.679     4.679   1.0% |
  diagonalize:                      55.485    55.485  12.4% |----|
  rotate_psi:                       11.130    11.130   2.5% ||
 Density:                           16.805     0.000   0.0% |
  Atomic density matrices:           0.356     0.356   0.1% |
  Mix:                               0.076     0.076   0.0% |
  Multipole moments:                 0.002     0.002   0.0% |
  Pseudo density:                   16.371    16.371   3.7% ||
   Symmetrize density:               0.000     0.000   0.0% |
 Hamiltonian:                        4.522     0.009   0.0% |
  Atomic:                            3.031     0.015   0.0% |
   XC Correction:                    3.016     3.016   0.7% |
  Calculate atomic Hamiltonians:     0.032     0.032   0.0% |
  Communicate:                       0.000     0.000   0.0% |
  Poisson:                           0.004     0.004   0.0% |
  XC 3D grid:                        1.447     1.447   0.3% |
 Orthonormalize:                     0.449     0.028   0.0% |
  calc_s_matrix:                     0.079     0.079   0.0% |
  inverse-cholesky:                  0.049     0.049   0.0% |
  projections:                       0.172     0.172   0.0% |
  rotate_psi_s:                      0.121     0.121   0.0% |
Set symmetry:                        0.005     0.005   0.0% |
Other:                               0.654     0.654   0.1% |
-----------------------------------------------------------
Total:                                       448.311 100.0%

Memory usage: 860.92 MiB
Date: Fri Jul 24 00:57:05 2026
