
  ___ ___ ___ _ _ _  
 |   |   |_  | | | | 
 | | | | | . | | | | 
 |__ |  _|___|_____|  25.7.0
 |___|_|             

User:   buyer@DESKTOP-3EQA59H
Date:   Thu Jul 23 23:43:12 2026
Arch:   x86_64
Pid:    14237
CWD:    /mnt/c/Users/Buyer/dft-si
Python: 3.11.15
gpaw:   /home/buyer/miniconda3/envs/dft/lib/python3.11/site-packages/gpaw
_gpaw:  /home/buyer/miniconda3/envs/dft/lib/python3.11/site-packages/
        _gpaw.cpython-311-x86_64-linux-gnu.so
ase:    /home/buyer/miniconda3/envs/dft/lib/python3.11/site-packages/ase (version 3.29.0)
numpy:  /home/buyer/miniconda3/envs/dft/lib/python3.11/site-packages/numpy (version 2.4.6)
scipy:  /home/buyer/miniconda3/envs/dft/lib/python3.11/site-packages/scipy (version 1.17.1)
libxc:  7.0.0
units:  Angstrom and eV
cores: 1
OpenMP: True
OMP_NUM_THREADS: 1

Input parameters:
  kpts: [6 6 6]
  mode: {ecut: 800.0,
         name: pw}
  symmetry: {point_group: False}
  xc: PBE

System changes: positions, numbers, cell, pbc, initial_charges, initial_magmoms 

Initialize ...

species:
  C:
    name: Carbon
    id: 4aa54d4b901d75f77cc0ea3eec22967b
    Z: 6.0
    valence: 4
    core: 2
    charge: 0.0
    file: /home/buyer/miniconda3/envs/dft/lib/python3.11/site-packages/gpaw_data/setups/C.PBE.gz
    compensation charges: {type: gauss,
                           rc: 0.20,
                           lmax: 2}
    cutoffs: {filter: 1.14,
              core: 1.14}
    projectors:
      #              energy  rcut
      - 2s(2.00)   -13.751   0.635
      - 2p(2.00)    -5.284   0.635
      -  s          13.461   0.635
      -  p          21.927   0.635
      -  d           0.000   0.635
  
    # Using partial waves for C as LCAO basis

Reference energy: -8221.024924  # eV

Spin-paired calculation

Convergence criteria:
 Maximum [total energy] change in last 3 cyles: 0.0005 eV / valence electron
 Maximum integral of absolute [dens]ity change: 0.0001 electrons / valence electron
 Maximum integral of absolute [eigenst]ate change: 4e-08 eV^2 / valence electron
 Maximum number of scf [iter]ations: 333
 (Square brackets indicate name in SCF output, whereas a 'c' in
 the SCF output indicates the quantity has converged.)

Symmetries present (total): 1

  ( 1  0  0)
  ( 0  1  0)
  ( 0  0  1)

216 k-points: 6 x 6 x 6 Monkhorst-Pack grid
108 k-points in the irreducible part of the Brillouin zone
       k-points in crystal coordinates                weights
   0:     0.08333333   -0.41666667   -0.41666667          2/216
   1:     0.08333333   -0.41666667   -0.25000000          2/216
   2:     0.08333333   -0.41666667   -0.08333333          2/216
   3:     0.08333333   -0.41666667    0.08333333          2/216
   4:     0.08333333   -0.41666667    0.25000000          2/216
   5:     0.08333333   -0.41666667    0.41666667          2/216
   6:     0.08333333   -0.25000000   -0.41666667          2/216
   7:     0.08333333   -0.25000000   -0.25000000          2/216
   8:     0.08333333   -0.25000000   -0.08333333          2/216
   9:     0.08333333   -0.25000000    0.08333333          2/216
          ...
 107:     0.41666667    0.41666667    0.41666667          2/216

Wave functions: Plane wave expansion
  Cutoff energy: 800.000 eV
  Number of coefficients (min, max): 2395, 2421
  Pulay-stress correction: 0.000000 eV/Ang^3 (de/decut=0.000000)
  Using FFTW library
  ScaLapack parameters: grid=1x1, blocksize=None
  Wavefunction extrapolation:
    Improved wavefunction reuse through dual PAW basis 

Occupation numbers: Fermi-Dirac:
  width: 0.1000  # eV
 

Eigensolver
   Davidson(niter=2) 

Densities:
  Coarse grid: 24*24*24 grid
  Fine grid: 48*48*48 grid
  Total Charge: 0.000000 

Density mixing:
  Method: separate
  Backend: pulay
  Linear mixing parameter: 0.05
  old densities: 5
  Damping of long wavelength oscillations: 50 

Hamiltonian:
  XC and Coulomb potentials evaluated on a 48*48*48 grid
  Using the PBE Exchange-Correlation functional
  External potential:
    NoExternalPotential
 

XC parameters: PBE with 2 nearest neighbor stencil

Memory estimate:
  Process memory now: 568.52 MiB
  Calculator: 141.52 MiB
    Density: 6.35 MiB
      Arrays: 2.74 MiB
      Localized functions: 2.55 MiB
      Mixer: 1.05 MiB
    Hamiltonian: 1.85 MiB
      Arrays: 1.79 MiB
      XC: 0.00 MiB
      Poisson: 0.00 MiB
      vbar: 0.05 MiB
    Wavefunctions: 133.33 MiB
      Arrays psit_nG: 95.75 MiB
      Eigensolver: 1.16 MiB
      Projections: 4.11 MiB
      Projectors: 27.78 MiB
      PW-descriptor: 4.52 MiB

Total number of cores used: 1

Number of atoms: 8
Number of atomic orbitals: 32
Number of bands in calculation: 24
Number of valence electrons: 32
Bands to converge: occupied

... initialized

Initializing position-dependent things.

Density initialized from atomic densities
Creating initial wave functions:
  24 bands from LCAO basis set

                        
                        
                        
                        
           C            
        C     C         
           C   C        
          C C           
       C                
                        
                        
                        
                        

Atomic positions and initial magnetic moments

Positions:
   0 C      0.000030    0.000014    0.000015    ( 0.0000,  0.0000,  0.0000)
   1 C      0.901599    0.901478    0.901488    ( 0.0000,  0.0000,  0.0000)
   2 C      0.000024    1.803041    1.802967    ( 0.0000,  0.0000,  0.0000)
   3 C      0.901560    2.704525    2.704474    ( 0.0000,  0.0000,  0.0000)
   4 C      1.803031    0.000013    1.802965    ( 0.0000,  0.0000,  0.0000)
   5 C      2.704376    0.901459    2.704488    ( 0.0000,  0.0000,  0.0000)
   6 C      1.803014    1.802988    0.000069    ( 0.0000,  0.0000,  0.0000)
   7 C      2.704374    2.704499    0.901540    ( 0.0000,  0.0000,  0.0000)

Unit cell:
           periodic     x           y           z      points  spacing
  1. axis:    yes    3.605990    0.000006    0.000007    24     0.1502
  2. axis:    yes    0.000006    3.605993    0.000005    24     0.1502
  3. axis:    yes    0.000007    0.000005    3.605991    24     0.1502

  Lengths:   3.605990   3.605993   3.605991
  Angles:   89.999840  89.999793  89.999805

Effective grid spacing dv^(1/3) = 0.1502

     iter     time        total  log10-change:
                         energy   eigst   dens
iter:   1 23:43:47   -74.504111
iter:   2 23:43:54   -74.283459   -2.09  -0.85
iter:   3 23:44:01   -73.193640   -0.67  -0.87
iter:   4 23:44:08   -73.133711   -2.60  -1.22
iter:   5 23:44:15   -72.930045   -2.78  -1.24
iter:   6 23:44:22   -72.783602   -1.59  -1.41
iter:   7 23:44:30   -72.776941   -3.65  -1.75
iter:   8 23:44:37   -72.741167   -2.96  -1.77
iter:   9 23:44:44   -72.736864   -3.28  -2.24
iter:  10 23:44:51   -72.736802c  -5.30  -3.18
iter:  11 23:44:58   -72.736788c  -5.87  -3.44
iter:  12 23:45:05   -72.736788c  -7.19  -4.22c
iter:  13 23:45:12   -72.736788c  -8.71c -4.34c

Converged after 13 iterations.

Dipole moment: (-0.001564, -0.000713, -0.002378) |e|*Ang

Energy contributions relative to reference atoms: (reference = -8221.024924)

Kinetic:        +53.681101
Potential:      -53.066346
External:        +0.000000
XC:             -73.519660
Entropy (-ST):   -0.000000
Local:           +0.168117
SIC:             +0.000000
--------------------------
Free energy:    -72.736788
Extrapolated:   -72.736788

Showing only first 2 kpts
 Kpt  Band  Eigenvalues  Occupancy
  0    14      8.08142    2.00000
  0    15      9.41736    2.00000
  0    16     18.57404    0.00000
  0    17     19.83429    0.00000

  1    14      7.66749    2.00000
  1    15      9.56865    2.00000
  1    16     17.79476    0.00000
  1    17     18.17660    0.00000


Fermi level: 13.73916

Gap: 4.836 eV
Transition (v -> c):
  (s=0, k=14, n=15, [0.08, -0.08, -0.08]) -> (s=0, k=56, n=16, [0.25, 0.08, -0.08])
Direct/indirect transitions are different
Direct gap: 5.008 eV
Transition at: (s=0, k=14, n=15, [0.08, -0.08, -0.08])
Timing:                              incl.     excl.
-----------------------------------------------------------
Hamiltonian:                         0.158     0.000   0.0% |
 Atomic:                             0.110     0.001   0.0% |
  XC Correction:                     0.109     0.109   0.1% |
 Calculate atomic Hamiltonians:      0.013     0.013   0.0% |
 Communicate:                        0.000     0.000   0.0% |
 Initialize Hamiltonian:             0.000     0.000   0.0% |
 Poisson:                            0.001     0.001   0.0% |
 XC 3D grid:                         0.035     0.035   0.0% |
LCAO initialization:                26.388     0.007   0.0% |
 LCAO eigensolver:                   1.247     0.003   0.0% |
  Calculate projections:             0.008     0.008   0.0% |
  DenseAtomicCorrection:             0.020     0.020   0.0% |
  Distribute overlap matrix:         0.002     0.002   0.0% |
  Orbital Layouts:                   0.083     0.083   0.1% |
  Potential matrix:                  1.055     1.055   0.9% |
  Sum over cells:                    0.075     0.075   0.1% |
 LCAO to grid:                      23.199    23.199  19.2% |-------|
 Set positions (LCAO WFS):           1.935     0.275   0.2% |
  Basic WFS set positions:           0.000     0.000   0.0% |
  Basis functions set positions:     0.000     0.000   0.0% |
  P tci:                             0.700     0.700   0.6% |
  ST tci:                            0.945     0.945   0.8% |
  mktci:                             0.014     0.014   0.0% |
PWDescriptor:                        0.032     0.032   0.0% |
SCF-cycle:                          94.009     0.140   0.1% |
 Davidson:                          87.498    19.295  16.0% |-----|
  Apply H:                          11.578    11.162   9.2% |---|
   HMM T:                            0.416     0.416   0.3% |
  Subspace diag:                    15.828     0.116   0.1% |
   calc_h_matrix:                   12.752     1.205   1.0% |
    Apply H:                        11.547    11.079   9.2% |---|
     HMM T:                          0.468     0.468   0.4% |
   diagonalize:                      0.438     0.438   0.4% |
   rotate_psi:                       2.522     2.522   2.1% ||
  calc. matrices:                   29.807     6.396   5.3% |-|
   Apply H:                         23.411    22.477  18.6% |------|
    HMM T:                           0.934     0.934   0.8% |
  diagonalize:                       6.869     6.869   5.7% |-|
  rotate_psi:                        4.120     4.120   3.4% ||
 Density:                            3.822     0.000   0.0% |
  Atomic density matrices:           0.109     0.109   0.1% |
  Mix:                               0.220     0.220   0.2% |
  Multipole moments:                 0.001     0.001   0.0% |
  Pseudo density:                    3.492     3.491   2.9% ||
   Symmetrize density:               0.000     0.000   0.0% |
 Hamiltonian:                        1.952     0.005   0.0% |
  Atomic:                            1.334     0.010   0.0% |
   XC Correction:                    1.324     1.324   1.1% |
  Calculate atomic Hamiltonians:     0.143     0.143   0.1% |
  Communicate:                       0.000     0.000   0.0% |
  Poisson:                           0.005     0.005   0.0% |
  XC 3D grid:                        0.464     0.464   0.4% |
 Orthonormalize:                     0.598     0.008   0.0% |
  calc_s_matrix:                     0.060     0.060   0.0% |
  inverse-cholesky:                  0.013     0.013   0.0% |
  projections:                       0.411     0.411   0.3% |
  rotate_psi_s:                      0.106     0.106   0.1% |
Set symmetry:                        0.004     0.004   0.0% |
Other:                               0.214     0.214   0.2% |
-----------------------------------------------------------
Total:                                       120.806 100.0%

Memory usage: 573.84 MiB
Date: Thu Jul 23 23:45:12 2026
