
  ___ ___ ___ _ _ _  
 |   |   |_  | | | | 
 | | | | | . | | | | 
 |__ |  _|___|_____|  25.7.0
 |___|_|             

User:   buyer@DESKTOP-3EQA59H
Date:   Fri Jul 24 00:45:35 2026
Arch:   x86_64
Pid:    14237
CWD:    /mnt/c/Users/Buyer/dft-si
Python: 3.11.15
gpaw:   /home/buyer/miniconda3/envs/dft/lib/python3.11/site-packages/gpaw
_gpaw:  /home/buyer/miniconda3/envs/dft/lib/python3.11/site-packages/
        _gpaw.cpython-311-x86_64-linux-gnu.so
ase:    /home/buyer/miniconda3/envs/dft/lib/python3.11/site-packages/ase (version 3.29.0)
numpy:  /home/buyer/miniconda3/envs/dft/lib/python3.11/site-packages/numpy (version 2.4.6)
scipy:  /home/buyer/miniconda3/envs/dft/lib/python3.11/site-packages/scipy (version 1.17.1)
libxc:  7.0.0
units:  Angstrom and eV
cores: 1
OpenMP: True
OMP_NUM_THREADS: 1

Input parameters:
  kpts: [8 8 8]
  mode: {ecut: 600.0,
         name: pw}
  spinpol: True
  symmetry: {point_group: False}
  xc: PBE

System changes: positions, numbers, cell, pbc, initial_charges, initial_magmoms 

Initialize ...

species:
  Fe:
    name: Iron
    id: 37abbd8d6c3c35915a9b583b742da910
    Z: 26.0
    valence: 8
    core: 18
    charge: 0.0
    file: /home/buyer/miniconda3/envs/dft/lib/python3.11/site-packages/gpaw_data/setups/Fe.PBE.gz
    compensation charges: {type: gauss,
                           rc: 0.33,
                           lmax: 2}
    cutoffs: {filter: 2.06,
              core: 2.67}
    projectors:
      #              energy  rcut
      - 4s(2.00)    -5.291   1.164
      - 4p(0.00)    -1.326   1.058
      - 3d(6.00)    -7.505   1.058
      -  s          21.920   1.164
      -  p          25.885   1.058
      -  d          19.706   1.058
  
    # Using partial waves for Fe as LCAO basis

Reference energy: -69238.909200  # eV

Spin-polarized calculation.
Initial magnetic moment: 4.400000

Convergence criteria:
 Maximum [total energy] change in last 3 cyles: 0.0005 eV / valence electron
 Maximum integral of absolute [dens]ity change: 0.0001 electrons / valence electron
 Maximum integral of absolute [eigenst]ate change: 4e-08 eV^2 / valence electron
 Maximum number of scf [iter]ations: 333
 (Square brackets indicate name in SCF output, whereas a 'c' in
 the SCF output indicates the quantity has converged.)

Symmetries present (total): 1

  ( 1  0  0)
  ( 0  1  0)
  ( 0  0  1)

512 k-points: 8 x 8 x 8 Monkhorst-Pack grid
256 k-points in the irreducible part of the Brillouin zone
       k-points in crystal coordinates                weights
   0:     0.06250000   -0.43750000   -0.43750000          2/512
   1:     0.06250000   -0.43750000   -0.31250000          2/512
   2:     0.06250000   -0.43750000   -0.18750000          2/512
   3:     0.06250000   -0.43750000   -0.06250000          2/512
   4:     0.06250000   -0.43750000    0.06250000          2/512
   5:     0.06250000   -0.43750000    0.18750000          2/512
   6:     0.06250000   -0.43750000    0.31250000          2/512
   7:     0.06250000   -0.43750000    0.43750000          2/512
   8:     0.06250000   -0.31250000   -0.43750000          2/512
   9:     0.06250000   -0.31250000   -0.31250000          2/512
          ...
 255:     0.43750000    0.43750000    0.43750000          2/512

Wave functions: Plane wave expansion
  Cutoff energy: 600.000 eV
  Number of coefficients (min, max): 714, 747
  Pulay-stress correction: 0.000000 eV/Ang^3 (de/decut=0.000000)
  Using FFTW library
  ScaLapack parameters: grid=1x1, blocksize=None
  Wavefunction extrapolation:
    Improved wavefunction reuse through dual PAW basis 

Occupation numbers: Fermi-Dirac:
  width: 0.1000  # eV
 

Eigensolver
   Davidson(niter=2) 

Densities:
  Coarse grid: 16*16*16 grid
  Fine grid: 32*32*32 grid
  Total Charge: 0.000000 

Density mixing:
  Method: difference
  Backend: pulay
  Linear mixing parameter: 0.05
  old densities: 5
  Damping of long wavelength oscillations: 50 

Hamiltonian:
  XC and Coulomb potentials evaluated on a 32*32*32 grid
  Using the PBE Exchange-Correlation functional
  External potential:
    NoExternalPotential
 

XC parameters: PBE with 2 nearest neighbor stencil

Memory estimate:
  Process memory now: 860.92 MiB
  Calculator: 132.27 MiB
    Density: 2.32 MiB
      Arrays: 1.09 MiB
      Localized functions: 0.79 MiB
      Mixer: 0.44 MiB
    Hamiltonian: 0.83 MiB
      Arrays: 0.81 MiB
      XC: 0.00 MiB
      Poisson: 0.00 MiB
      vbar: 0.02 MiB
    Wavefunctions: 129.12 MiB
      Arrays psit_nG: 99.21 MiB
      Eigensolver: 0.30 MiB
      Projections: 4.78 MiB
      Projectors: 21.76 MiB
      PW-descriptor: 3.07 MiB

Total number of cores used: 1

Number of atoms: 2
Number of atomic orbitals: 18
Number of bands in calculation: 17
Number of valence electrons: 16
Bands to converge: occupied

... initialized

Initializing position-dependent things.

Density initialized from atomic densities
Creating initial wave functions:
  17 bands from LCAO basis set

                    
                    
                    
                    
           Fe       
                    
       Fe           
                    
                    
                    
                    

Atomic positions and initial magnetic moments

Positions:
   0 Fe    -0.000000    0.000000    0.000000    ( 0.0000,  0.0000,  2.2000)
   1 Fe     1.406585    1.406584    1.406584    ( 0.0000,  0.0000,  2.2000)

Unit cell:
           periodic     x           y           z      points  spacing
  1. axis:    yes    2.813170   -0.000000   -0.000000    16     0.1758
  2. axis:    yes   -0.000000    2.813169   -0.000001    16     0.1758
  3. axis:    yes   -0.000000   -0.000001    2.813170    16     0.1758

  Lengths:   2.813170   2.813169   2.813170
  Angles:   90.000021  90.000015  90.000011

Effective grid spacing dv^(1/3) = 0.1758

     iter     time        total  log10-change:  magmom
                         energy   eigst   dens
iter:   1 00:45:52   -17.847497                   +4.4078
iter:   2 00:46:00   -17.998732   -1.15  -1.45    +4.2270
iter:   3 00:46:08   -18.041703   -1.54  -1.46    +4.1079
iter:   4 00:46:15   -18.399537   -1.27  -1.68    +4.2282
iter:   5 00:46:23   -20.057619   -1.28  -1.25    +4.1911
iter:   6 00:46:30   -18.044285   -0.87  -1.04    +4.1826
iter:   7 00:46:37   -18.043463   -2.87  -2.24    +4.1679
iter:   8 00:46:44   -18.041867c  -3.54  -2.35    +4.1900
iter:   9 00:46:51   -18.042182c  -3.92  -2.76    +4.2244
iter:  10 00:46:58   -18.042524c  -4.85  -2.71    +4.2427
iter:  11 00:47:06   -18.042603c  -4.85  -2.68    +4.2896
iter:  12 00:47:13   -18.042021c  -4.01  -2.63    +4.2781
iter:  13 00:47:27   -18.041850c  -5.51  -2.98    +4.2913
iter:  14 00:47:35   -18.042125c  -4.54  -3.09    +4.2506
iter:  15 00:47:43   -18.042094c  -5.83  -3.09    +4.2593
iter:  16 00:48:00   -18.042081c  -6.19  -3.20    +4.2586
iter:  17 00:48:07   -18.042210c  -5.04  -3.28    +4.2595
iter:  18 00:48:14   -18.042192c  -5.77  -2.95    +4.2590
iter:  19 00:48:22   -18.042036c  -4.86  -2.90    +4.2604
iter:  20 00:48:29   -18.042171c  -4.96  -3.31    +4.2602
iter:  21 00:48:36   -18.042087c  -5.19  -3.03    +4.2609
iter:  22 00:48:43   -18.042078c  -6.55  -3.69    +4.2617
iter:  23 00:48:50   -18.042087c  -6.40  -3.73    +4.2598
iter:  24 00:48:57   -18.042088c  -7.12  -3.74    +4.2572
iter:  25 00:49:06   -18.042089c  -6.37  -3.79    +4.2566
iter:  26 00:49:14   -18.042094c  -6.77  -3.88    +4.2561
iter:  27 00:49:22   -18.042096c  -8.19c -3.95    +4.2556
iter:  28 00:49:29   -18.042098c  -6.94  -3.99    +4.2556
iter:  29 00:49:36   -18.042094c  -7.47c -4.40c   +4.2556

Converged after 29 iterations.

Dipole moment: (0.000005, -0.000003, -0.000002) |e|*Ang

Total magnetic moment: (0.000000, 0.000000, 4.255605)
Local magnetic moments:
   0 Fe ( 0.000000,  0.000000,  2.163053)
   1 Fe ( 0.000000,  0.000000,  2.163053)

Energy contributions relative to reference atoms: (reference = -69238.909200)

Kinetic:        +17.396289
Potential:      -14.606609
External:        +0.000000
XC:             -20.955565
Entropy (-ST):   -0.060419
Local:           +0.154000
SIC:             +0.000000
--------------------------
Free energy:    -18.072303
Extrapolated:   -18.042094

Spin contamination: 0.108642 electrons
Showing only first 2 kpts
                      Up                     Down
 Kpt  Band  Eigenvalues  Occupancy  Eigenvalues  Occupancy
  0     6      9.35579    0.99998     11.81008    0.00000
  0     7      9.52558    0.99989     11.91575    0.00000
  0     8      9.79286    0.99847     12.32275    0.00000
  0     9     10.51415    0.32432     12.65587    0.00000

  1     6      9.17711    1.00000     11.49126    0.00003
  1     7      9.32181    0.99999     11.70185    0.00000
  1     8      9.88548    0.99614     12.38420    0.00000
  1     9     10.55542    0.24110     12.71563    0.00000


Fermi level: 10.44075

No gap
No difference between direct/indirect transitions
Timing:                              incl.     excl.
-----------------------------------------------------------
Hamiltonian:                         0.142     0.000   0.0% |
 Atomic:                             0.115     0.021   0.0% |
  XC Correction:                     0.094     0.094   0.0% |
 Calculate atomic Hamiltonians:      0.001     0.001   0.0% |
 Communicate:                        0.000     0.000   0.0% |
 Initialize Hamiltonian:             0.000     0.000   0.0% |
 Poisson:                            0.000     0.000   0.0% |
 XC 3D grid:                         0.026     0.026   0.0% |
LCAO initialization:                10.058     0.019   0.0% |
 LCAO eigensolver:                   0.823     0.009   0.0% |
  Calculate projections:             0.011     0.011   0.0% |
  DenseAtomicCorrection:             0.036     0.036   0.0% |
  Distribute overlap matrix:         0.006     0.006   0.0% |
  Orbital Layouts:                   0.093     0.093   0.0% |
  Potential matrix:                  0.513     0.513   0.2% |
  Sum over cells:                    0.157     0.157   0.1% |
 LCAO to grid:                       8.403     8.403   3.5% ||
 Set positions (LCAO WFS):           0.812     0.121   0.1% |
  Basic WFS set positions:           0.000     0.000   0.0% |
  Basis functions set positions:     0.000     0.000   0.0% |
  P tci:                             0.228     0.228   0.1% |
  ST tci:                            0.455     0.455   0.2% |
  mktci:                             0.009     0.009   0.0% |
PWDescriptor:                        0.022     0.022   0.0% |
SCF-cycle:                         230.875     2.929   1.2% |
 Davidson:                         218.250    50.317  20.8% |-------|
  Apply H:                          17.920    16.100   6.7% |--|
   HMM T:                            1.820     1.820   0.8% |
  Subspace diag:                    31.634     0.834   0.3% |
   calc_h_matrix:                   22.717     4.656   1.9% ||
    Apply H:                        18.061    16.052   6.6% |--|
     HMM T:                          2.009     2.009   0.8% |
   diagonalize:                      2.804     2.804   1.2% |
   rotate_psi:                       5.279     5.279   2.2% ||
  calc. matrices:                   57.859    22.413   9.3% |---|
   Apply H:                         35.446    31.880  13.2% |----|
    HMM T:                           3.566     3.566   1.5% ||
  diagonalize:                      49.511    49.511  20.5% |-------|
  rotate_psi:                       11.010    11.010   4.6% |-|
 Density:                            5.554     0.000   0.0% |
  Atomic density matrices:           0.320     0.320   0.1% |
  Mix:                               0.059     0.059   0.0% |
  Multipole moments:                 0.002     0.002   0.0% |
  Pseudo density:                    5.172     5.172   2.1% ||
   Symmetrize density:               0.000     0.000   0.0% |
 Hamiltonian:                        3.781     0.006   0.0% |
  Atomic:                            2.703     0.016   0.0% |
   XC Correction:                    2.687     2.687   1.1% |
  Calculate atomic Hamiltonians:     0.029     0.029   0.0% |
  Communicate:                       0.000     0.000   0.0% |
  Poisson:                           0.003     0.003   0.0% |
  XC 3D grid:                        1.039     1.039   0.4% |
 Orthonormalize:                     0.362     0.025   0.0% |
  calc_s_matrix:                     0.072     0.072   0.0% |
  inverse-cholesky:                  0.044     0.044   0.0% |
  projections:                       0.136     0.136   0.1% |
  rotate_psi_s:                      0.084     0.084   0.0% |
Set symmetry:                        0.005     0.005   0.0% |
Other:                               0.519     0.519   0.2% |
-----------------------------------------------------------
Total:                                       241.622 100.0%

Memory usage: 860.92 MiB
Date: Fri Jul 24 00:49:37 2026
