
  ___ ___ ___ _ _ _  
 |   |   |_  | | | | 
 | | | | | . | | | | 
 |__ |  _|___|_____|  25.7.0
 |___|_|             

User:   buyer@DESKTOP-3EQA59H
Date:   Fri Jul 24 00:10:10 2026
Arch:   x86_64
Pid:    14237
CWD:    /mnt/c/Users/Buyer/dft-si
Python: 3.11.15
gpaw:   /home/buyer/miniconda3/envs/dft/lib/python3.11/site-packages/gpaw
_gpaw:  /home/buyer/miniconda3/envs/dft/lib/python3.11/site-packages/
        _gpaw.cpython-311-x86_64-linux-gnu.so
ase:    /home/buyer/miniconda3/envs/dft/lib/python3.11/site-packages/ase (version 3.29.0)
numpy:  /home/buyer/miniconda3/envs/dft/lib/python3.11/site-packages/numpy (version 2.4.6)
scipy:  /home/buyer/miniconda3/envs/dft/lib/python3.11/site-packages/scipy (version 1.17.1)
libxc:  7.0.0
units:  Angstrom and eV
cores: 1
OpenMP: True
OMP_NUM_THREADS: 1

Input parameters:
  kpts: [6 6 6]
  mode: {ecut: 500.0,
         name: pw}
  symmetry: {point_group: False}
  xc: PBE

System changes: positions, numbers, cell, pbc, initial_charges, initial_magmoms 

Initialize ...

species:
  Si:
    name: Silicon
    id: ee77bee481871cc2cb65ac61239ccafa
    Z: 14.0
    valence: 4
    core: 10
    charge: 0.0
    file: /home/buyer/miniconda3/envs/dft/lib/python3.11/site-packages/gpaw_data/setups/Si.PBE.gz
    compensation charges: {type: gauss,
                           rc: 0.33,
                           lmax: 2}
    cutoffs: {filter: 1.86,
              core: 2.06}
    projectors:
      #              energy  rcut
      - 3s(2.00)   -10.812   1.058
      - 3p(2.00)    -4.081   1.058
      -  s          16.399   1.058
      -  p          23.130   1.058
      -  d           0.000   1.058
  
    # Using partial waves for Si as LCAO basis

Reference energy: -63090.754002  # eV

Spin-paired calculation

Convergence criteria:
 Maximum [total energy] change in last 3 cyles: 0.0005 eV / valence electron
 Maximum integral of absolute [dens]ity change: 0.0001 electrons / valence electron
 Maximum integral of absolute [eigenst]ate change: 4e-08 eV^2 / valence electron
 Maximum number of scf [iter]ations: 333
 (Square brackets indicate name in SCF output, whereas a 'c' in
 the SCF output indicates the quantity has converged.)

Symmetries present (total): 1

  ( 1  0  0)
  ( 0  1  0)
  ( 0  0  1)

216 k-points: 6 x 6 x 6 Monkhorst-Pack grid
108 k-points in the irreducible part of the Brillouin zone
       k-points in crystal coordinates                weights
   0:     0.08333333   -0.41666667   -0.41666667          2/216
   1:     0.08333333   -0.41666667   -0.25000000          2/216
   2:     0.08333333   -0.41666667   -0.08333333          2/216
   3:     0.08333333   -0.41666667    0.08333333          2/216
   4:     0.08333333   -0.41666667    0.25000000          2/216
   5:     0.08333333   -0.41666667    0.41666667          2/216
   6:     0.08333333   -0.25000000   -0.41666667          2/216
   7:     0.08333333   -0.25000000   -0.25000000          2/216
   8:     0.08333333   -0.25000000   -0.08333333          2/216
   9:     0.08333333   -0.25000000    0.08333333          2/216
          ...
 107:     0.41666667    0.41666667    0.41666667          2/216

Wave functions: Plane wave expansion
  Cutoff energy: 500.000 eV
  Number of coefficients (min, max): 4401, 4430
  Pulay-stress correction: 0.000000 eV/Ang^3 (de/decut=0.000000)
  Using FFTW library
  ScaLapack parameters: grid=1x1, blocksize=None
  Wavefunction extrapolation:
    Improved wavefunction reuse through dual PAW basis 

Occupation numbers: Fermi-Dirac:
  width: 0.1000  # eV
 

Eigensolver
   Davidson(niter=2) 

Densities:
  Coarse grid: 30*30*30 grid
  Fine grid: 60*60*60 grid
  Total Charge: 0.000000 

Density mixing:
  Method: separate
  Backend: pulay
  Linear mixing parameter: 0.05
  old densities: 5
  Damping of long wavelength oscillations: 50 

Hamiltonian:
  XC and Coulomb potentials evaluated on a 60*60*60 grid
  Using the PBE Exchange-Correlation functional
  External potential:
    NoExternalPotential
 

XC parameters: PBE with 2 nearest neighbor stencil

Memory estimate:
  Process memory now: 841.65 MiB
  Calculator: 256.29 MiB
    Density: 12.08 MiB
      Arrays: 5.36 MiB
      Localized functions: 4.67 MiB
      Mixer: 2.06 MiB
    Hamiltonian: 3.60 MiB
      Arrays: 3.50 MiB
      XC: 0.00 MiB
      Poisson: 0.00 MiB
      vbar: 0.10 MiB
    Wavefunctions: 240.61 MiB
      Arrays psit_nG: 175.21 MiB
      Eigensolver: 2.05 MiB
      Projections: 4.11 MiB
      Projectors: 50.91 MiB
      PW-descriptor: 8.33 MiB

Total number of cores used: 1

Number of atoms: 8
Number of atomic orbitals: 32
Number of bands in calculation: 24
Number of valence electrons: 32
Bands to converge: occupied

... initialized

Initializing position-dependent things.

Density initialized from atomic densities
Creating initial wave functions:
  24 bands from LCAO basis set

                             
                             
                             
                             
             Si              
                  Si         
         Si                  
                    Si       
              Si             
           Si                
                Si           
       Si                    
                             
                             
                             
                             

Atomic positions and initial magnetic moments

Positions:
   0 Si    -0.000024   -0.000111    0.000109    ( 0.0000,  0.0000,  0.0000)
   1 Si     1.395133    1.395316    1.395348    ( 0.0000,  0.0000,  0.0000)
   2 Si    -0.000016    2.790871    2.790673    ( 0.0000,  0.0000,  0.0000)
   3 Si     1.395123    4.186229    4.186176    ( 0.0000,  0.0000,  0.0000)
   4 Si     2.790779   -0.000128    2.790646    ( 0.0000,  0.0000,  0.0000)
   5 Si     4.186440    1.395311    4.186180    ( 0.0000,  0.0000,  0.0000)
   6 Si     2.790770    2.790880    0.000134    ( 0.0000,  0.0000,  0.0000)
   7 Si     4.186398    4.186236    1.395353    ( 0.0000,  0.0000,  0.0000)

Unit cell:
           periodic     x           y           z      points  spacing
  1. axis:    yes    5.581534   -0.000003    0.000003    30     0.1861
  2. axis:    yes   -0.000003    5.581535    0.000003    30     0.1861
  3. axis:    yes    0.000003    0.000003    5.581535    30     0.1861

  Lengths:   5.581534   5.581535   5.581535
  Angles:   89.999945  89.999946  90.000052

Effective grid spacing dv^(1/3) = 0.1861

     iter     time        total  log10-change:
                         energy   eigst   dens
iter:   1 00:10:34   -43.270451
iter:   2 00:10:46   -43.303964   -1.83  -0.82
iter:   3 00:10:57   -43.129864   -1.78  -0.82
iter:   4 00:11:09   -43.172857   -2.77  -1.43
iter:   5 00:11:21   -43.186759   -3.69  -1.30
iter:   6 00:11:32   -43.052939   -2.63  -1.28
iter:   7 00:11:44   -43.053358   -4.06  -2.85
iter:   8 00:11:55   -43.053366c  -4.89  -3.06
iter:   9 00:12:07   -43.053385c  -6.22  -3.11
iter:  10 00:12:19   -43.053382c  -6.48  -3.32
iter:  11 00:12:30   -43.053383c  -7.30  -4.12c
iter:  12 00:12:43   -43.053381c  -7.69c -3.89
iter:  13 00:12:59   -43.053381c  -8.30c -4.48c

Converged after 13 iterations.

Dipole moment: (0.001233, 0.006971, -0.007034) |e|*Ang

Energy contributions relative to reference atoms: (reference = -63090.754002)

Kinetic:        +32.962666
Potential:      -31.402652
External:        +0.000000
XC:             -44.537767
Entropy (-ST):   -0.001760
Local:           -0.074747
SIC:             +0.000000
--------------------------
Free energy:    -43.054261
Extrapolated:   -43.053381

Showing only first 2 kpts
 Kpt  Band  Eigenvalues  Occupancy
  0    14      3.01967    2.00000
  0    15      3.67860    1.99999
  0    16      6.57454    0.00000
  0    17      7.13428    0.00000

  1    14      2.77979    2.00000
  1    15      3.62659    1.99999
  1    16      6.67602    0.00000
  1    17      6.70652    0.00000


Fermi level: 4.90997

Gap: 1.040 eV
Transition (v -> c):
  (s=0, k=15, n=15, [0.08, -0.08, 0.08]) -> (s=0, k=14, n=16, [0.08, -0.08, -0.08])
Direct/indirect transitions are different
Direct gap: 1.040 eV
Transition at: (s=0, k=14, n=15, [0.08, -0.08, -0.08])
Timing:                              incl.     excl.
-----------------------------------------------------------
Hamiltonian:                         0.215     0.001   0.0% |
 Atomic:                             0.121     0.001   0.0% |
  XC Correction:                     0.120     0.120   0.1% |
 Calculate atomic Hamiltonians:      0.017     0.017   0.0% |
 Communicate:                        0.000     0.000   0.0% |
 Initialize Hamiltonian:             0.000     0.000   0.0% |
 Poisson:                            0.001     0.001   0.0% |
 XC 3D grid:                         0.076     0.076   0.0% |
LCAO initialization:                12.025     0.007   0.0% |
 LCAO eigensolver:                   0.262     0.002   0.0% |
  Calculate projections:             0.006     0.006   0.0% |
  DenseAtomicCorrection:             0.020     0.020   0.0% |
  Distribute overlap matrix:         0.002     0.002   0.0% |
  Orbital Layouts:                   0.058     0.058   0.0% |
  Potential matrix:                  0.146     0.146   0.1% |
  Sum over cells:                    0.028     0.028   0.0% |
 LCAO to grid:                      10.814    10.814   6.4% |--|
 Set positions (LCAO WFS):           0.942     0.114   0.1% |
  Basic WFS set positions:           0.000     0.000   0.0% |
  Basis functions set positions:     0.000     0.000   0.0% |
  P tci:                             0.551     0.551   0.3% |
  ST tci:                            0.272     0.272   0.2% |
  mktci:                             0.005     0.005   0.0% |
PWDescriptor:                        0.063     0.063   0.0% |
SCF-cycle:                         155.588     0.182   0.1% |
 Davidson:                         145.242    27.888  16.6% |------|
  Apply H:                          22.861    22.178  13.2% |----|
   HMM T:                            0.683     0.683   0.4% |
  Subspace diag:                    27.773     0.122   0.1% |
   calc_h_matrix:                   24.230     1.482   0.9% |
    Apply H:                        22.748    22.021  13.1% |----|
     HMM T:                          0.727     0.727   0.4% |
   diagonalize:                      0.439     0.439   0.3% |
   rotate_psi:                       2.983     2.983   1.8% ||
  calc. matrices:                   54.587     8.662   5.2% |-|
   Apply H:                         45.925    44.409  26.4% |----------|
    HMM T:                           1.516     1.516   0.9% |
  diagonalize:                       7.144     7.144   4.2% |-|
  rotate_psi:                        4.990     4.990   3.0% ||
 Density:                            7.029     0.000   0.0% |
  Atomic density matrices:           0.107     0.107   0.1% |
  Mix:                               0.277     0.277   0.2% |
  Multipole moments:                 0.001     0.001   0.0% |
  Pseudo density:                    6.644     6.644   4.0% |-|
   Symmetrize density:               0.000     0.000   0.0% |
 Hamiltonian:                        2.552     0.008   0.0% |
  Atomic:                            1.544     0.009   0.0% |
   XC Correction:                    1.536     1.536   0.9% |
  Calculate atomic Hamiltonians:     0.183     0.183   0.1% |
  Communicate:                       0.000     0.000   0.0% |
  Poisson:                           0.008     0.008   0.0% |
  XC 3D grid:                        0.809     0.809   0.5% |
 Orthonormalize:                     0.582     0.009   0.0% |
  calc_s_matrix:                     0.082     0.082   0.0% |
  inverse-cholesky:                  0.014     0.014   0.0% |
  projections:                       0.384     0.384   0.2% |
  rotate_psi_s:                      0.093     0.093   0.1% |
Set symmetry:                        0.004     0.004   0.0% |
Other:                               0.278     0.278   0.2% |
-----------------------------------------------------------
Total:                                       168.174 100.0%

Memory usage: 860.92 MiB
Date: Fri Jul 24 00:12:59 2026
