
  ___ ___ ___ _ _ _  
 |   |   |_  | | | | 
 | | | | | . | | | | 
 |__ |  _|___|_____|  25.7.0
 |___|_|             

User:   buyer@DESKTOP-3EQA59H
Date:   Thu Jul 23 23:45:12 2026
Arch:   x86_64
Pid:    14237
CWD:    /mnt/c/Users/Buyer/dft-si
Python: 3.11.15
gpaw:   /home/buyer/miniconda3/envs/dft/lib/python3.11/site-packages/gpaw
_gpaw:  /home/buyer/miniconda3/envs/dft/lib/python3.11/site-packages/
        _gpaw.cpython-311-x86_64-linux-gnu.so
ase:    /home/buyer/miniconda3/envs/dft/lib/python3.11/site-packages/ase (version 3.29.0)
numpy:  /home/buyer/miniconda3/envs/dft/lib/python3.11/site-packages/numpy (version 2.4.6)
scipy:  /home/buyer/miniconda3/envs/dft/lib/python3.11/site-packages/scipy (version 1.17.1)
libxc:  7.0.0
units:  Angstrom and eV
cores: 1
OpenMP: True
OMP_NUM_THREADS: 1

Input parameters:
  kpts: [6 6 6]
  mode: {ecut: 800.0,
         name: pw}
  symmetry: {point_group: False}
  xc: PBE

System changes: positions, numbers, cell, pbc, initial_charges, initial_magmoms 

Initialize ...

species:
  C:
    name: Carbon
    id: 4aa54d4b901d75f77cc0ea3eec22967b
    Z: 6.0
    valence: 4
    core: 2
    charge: 0.0
    file: /home/buyer/miniconda3/envs/dft/lib/python3.11/site-packages/gpaw_data/setups/C.PBE.gz
    compensation charges: {type: gauss,
                           rc: 0.20,
                           lmax: 2}
    cutoffs: {filter: 1.14,
              core: 1.14}
    projectors:
      #              energy  rcut
      - 2s(2.00)   -13.751   0.635
      - 2p(2.00)    -5.284   0.635
      -  s          13.461   0.635
      -  p          21.927   0.635
      -  d           0.000   0.635
  
    # Using partial waves for C as LCAO basis

Reference energy: -8221.024924  # eV

Spin-paired calculation

Convergence criteria:
 Maximum [total energy] change in last 3 cyles: 0.0005 eV / valence electron
 Maximum integral of absolute [dens]ity change: 0.0001 electrons / valence electron
 Maximum integral of absolute [eigenst]ate change: 4e-08 eV^2 / valence electron
 Maximum number of scf [iter]ations: 333
 (Square brackets indicate name in SCF output, whereas a 'c' in
 the SCF output indicates the quantity has converged.)

Symmetries present (total): 1

  ( 1  0  0)
  ( 0  1  0)
  ( 0  0  1)

216 k-points: 6 x 6 x 6 Monkhorst-Pack grid
108 k-points in the irreducible part of the Brillouin zone
       k-points in crystal coordinates                weights
   0:     0.08333333   -0.41666667   -0.41666667          2/216
   1:     0.08333333   -0.41666667   -0.25000000          2/216
   2:     0.08333333   -0.41666667   -0.08333333          2/216
   3:     0.08333333   -0.41666667    0.08333333          2/216
   4:     0.08333333   -0.41666667    0.25000000          2/216
   5:     0.08333333   -0.41666667    0.41666667          2/216
   6:     0.08333333   -0.25000000   -0.41666667          2/216
   7:     0.08333333   -0.25000000   -0.25000000          2/216
   8:     0.08333333   -0.25000000   -0.08333333          2/216
   9:     0.08333333   -0.25000000    0.08333333          2/216
          ...
 107:     0.41666667    0.41666667    0.41666667          2/216

Wave functions: Plane wave expansion
  Cutoff energy: 800.000 eV
  Number of coefficients (min, max): 2458, 2490
  Pulay-stress correction: 0.000000 eV/Ang^3 (de/decut=0.000000)
  Using FFTW library
  ScaLapack parameters: grid=1x1, blocksize=None
  Wavefunction extrapolation:
    Improved wavefunction reuse through dual PAW basis 

Occupation numbers: Fermi-Dirac:
  width: 0.1000  # eV
 

Eigensolver
   Davidson(niter=2) 

Densities:
  Coarse grid: 24*24*24 grid
  Fine grid: 48*48*48 grid
  Total Charge: 0.000000 

Density mixing:
  Method: separate
  Backend: pulay
  Linear mixing parameter: 0.05
  old densities: 5
  Damping of long wavelength oscillations: 50 

Hamiltonian:
  XC and Coulomb potentials evaluated on a 48*48*48 grid
  Using the PBE Exchange-Correlation functional
  External potential:
    NoExternalPotential
 

XC parameters: PBE with 2 nearest neighbor stencil

Memory estimate:
  Process memory now: 573.84 MiB
  Calculator: 145.28 MiB
    Density: 6.41 MiB
      Arrays: 2.74 MiB
      Localized functions: 2.62 MiB
      Mixer: 1.05 MiB
    Hamiltonian: 1.85 MiB
      Arrays: 1.79 MiB
      XC: 0.00 MiB
      Poisson: 0.00 MiB
      vbar: 0.05 MiB
    Wavefunctions: 137.02 MiB
      Arrays psit_nG: 98.48 MiB
      Eigensolver: 1.19 MiB
      Projections: 4.11 MiB
      Projectors: 28.60 MiB
      PW-descriptor: 4.63 MiB

Total number of cores used: 1

Number of atoms: 8
Number of atomic orbitals: 32
Number of bands in calculation: 24
Number of valence electrons: 32
Bands to converge: occupied

... initialized

Initializing position-dependent things.

Density initialized from atomic densities
Creating initial wave functions:
  24 bands from LCAO basis set

                         
                         
                         
                         
           C             
        C      C         
            C   C        
          C  C           
       C                 
                         
                         
                         
                         

Atomic positions and initial magnetic moments

Positions:
   0 C      0.000030    0.000014    0.000016    ( 0.0000,  0.0000,  0.0000)
   1 C      0.910269    0.910146    0.910157    ( 0.0000,  0.0000,  0.0000)
   2 C      0.000024    1.820379    1.820305    ( 0.0000,  0.0000,  0.0000)
   3 C      0.910229    2.730532    2.730480    ( 0.0000,  0.0000,  0.0000)
   4 C      1.820368    0.000013    1.820303    ( 0.0000,  0.0000,  0.0000)
   5 C      2.730381    0.910127    2.730495    ( 0.0000,  0.0000,  0.0000)
   6 C      1.820352    1.820325    0.000070    ( 0.0000,  0.0000,  0.0000)
   7 C      2.730380    2.730505    0.910209    ( 0.0000,  0.0000,  0.0000)

Unit cell:
           periodic     x           y           z      points  spacing
  1. axis:    yes    3.640665    0.000006    0.000007    24     0.1517
  2. axis:    yes    0.000006    3.640668    0.000005    24     0.1517
  3. axis:    yes    0.000007    0.000005    3.640666    24     0.1517

  Lengths:   3.640665   3.640668   3.640666
  Angles:   89.999840  89.999793  89.999805

Effective grid spacing dv^(1/3) = 0.1517

     iter     time        total  log10-change:
                         energy   eigst   dens
iter:   1 23:45:47   -74.192558
iter:   2 23:45:55   -73.995140   -2.08  -0.86
iter:   3 23:46:03   -73.061532   -0.70  -0.88
iter:   4 23:46:11   -72.963273   -2.70  -1.21
iter:   5 23:46:18   -72.807299   -3.01  -1.26
iter:   6 23:46:25   -72.617041   -1.64  -1.38
iter:   7 23:46:32   -72.603422   -3.90  -1.90
iter:   8 23:46:39   -72.594696   -3.62  -2.07
iter:   9 23:46:48   -72.593261c  -3.78  -2.48
iter:  10 23:46:56   -72.593232c  -6.02  -3.42
iter:  11 23:47:05   -72.593233c  -6.49  -4.06c
iter:  12 23:47:12   -72.593233c  -7.21  -4.09c
iter:  13 23:47:19   -72.593233c  -9.06c -4.51c

Converged after 13 iterations.

Dipole moment: (-0.001601, -0.000735, -0.002436) |e|*Ang

Energy contributions relative to reference atoms: (reference = -8221.024924)

Kinetic:        +43.285825
Potential:      -45.164491
External:        +0.000000
XC:             -70.887200
Entropy (-ST):   -0.000000
Local:           +0.172633
SIC:             +0.000000
--------------------------
Free energy:    -72.593233
Extrapolated:   -72.593233

Showing only first 2 kpts
 Kpt  Band  Eigenvalues  Occupancy
  0    14      7.70991    2.00000
  0    15      9.00921    2.00000
  0    16     17.98748    0.00000
  0    17     19.17377    0.00000

  1    14      7.30197    2.00000
  1    15      9.14949    2.00000
  1    16     17.21888    0.00000
  1    17     17.59342    0.00000


Fermi level: 13.27502

Gap: 4.756 eV
Transition (v -> c):
  (s=0, k=14, n=15, [0.08, -0.08, -0.08]) -> (s=0, k=56, n=16, [0.25, 0.08, -0.08])
Direct/indirect transitions are different
Direct gap: 4.933 eV
Transition at: (s=0, k=14, n=15, [0.08, -0.08, -0.08])
Timing:                              incl.     excl.
-----------------------------------------------------------
Hamiltonian:                         0.154     0.000   0.0% |
 Atomic:                             0.108     0.001   0.0% |
  XC Correction:                     0.107     0.107   0.1% |
 Calculate atomic Hamiltonians:      0.009     0.009   0.0% |
 Communicate:                        0.000     0.000   0.0% |
 Initialize Hamiltonian:             0.000     0.000   0.0% |
 Poisson:                            0.000     0.000   0.0% |
 XC 3D grid:                         0.036     0.036   0.0% |
LCAO initialization:                25.515     0.009   0.0% |
 LCAO eigensolver:                   1.447     0.003   0.0% |
  Calculate projections:             0.007     0.007   0.0% |
  DenseAtomicCorrection:             0.021     0.021   0.0% |
  Distribute overlap matrix:         0.002     0.002   0.0% |
  Orbital Layouts:                   0.247     0.247   0.2% |
  Potential matrix:                  1.038     1.038   0.8% |
  Sum over cells:                    0.129     0.129   0.1% |
 LCAO to grid:                      22.262    22.262  17.6% |------|
 Set positions (LCAO WFS):           1.797     0.234   0.2% |
  Basic WFS set positions:           0.000     0.000   0.0% |
  Basis functions set positions:     0.000     0.000   0.0% |
  P tci:                             0.645     0.645   0.5% |
  ST tci:                            0.903     0.903   0.7% |
  mktci:                             0.014     0.014   0.0% |
PWDescriptor:                        0.030     0.030   0.0% |
SCF-cycle:                         100.785     0.141   0.1% |
 Davidson:                          94.337    21.572  17.0% |------|
  Apply H:                          11.606    11.185   8.8% |---|
   HMM T:                            0.421     0.421   0.3% |
  Subspace diag:                    16.791     0.111   0.1% |
   calc_h_matrix:                   13.097     1.470   1.2% |
    Apply H:                        11.627    11.161   8.8% |---|
     HMM T:                          0.466     0.466   0.4% |
   diagonalize:                      0.419     0.419   0.3% |
   rotate_psi:                       3.163     3.163   2.5% ||
  calc. matrices:                   30.295     6.847   5.4% |-|
   Apply H:                         23.448    22.521  17.8% |------|
    HMM T:                           0.927     0.927   0.7% |
  diagonalize:                       8.462     8.462   6.7% |--|
  rotate_psi:                        5.612     5.612   4.4% |-|
 Density:                            3.817     0.000   0.0% |
  Atomic density matrices:           0.111     0.111   0.1% |
  Mix:                               0.250     0.250   0.2% |
  Multipole moments:                 0.001     0.001   0.0% |
  Pseudo density:                    3.455     3.455   2.7% ||
   Symmetrize density:               0.000     0.000   0.0% |
 Hamiltonian:                        1.885     0.006   0.0% |
  Atomic:                            1.315     0.009   0.0% |
   XC Correction:                    1.307     1.307   1.0% |
  Calculate atomic Hamiltonians:     0.118     0.118   0.1% |
  Communicate:                       0.000     0.000   0.0% |
  Poisson:                           0.005     0.005   0.0% |
  XC 3D grid:                        0.441     0.441   0.3% |
 Orthonormalize:                     0.605     0.008   0.0% |
  calc_s_matrix:                     0.064     0.064   0.1% |
  inverse-cholesky:                  0.014     0.014   0.0% |
  projections:                       0.378     0.378   0.3% |
  rotate_psi_s:                      0.141     0.141   0.1% |
Set symmetry:                        0.003     0.003   0.0% |
Other:                               0.223     0.223   0.2% |
-----------------------------------------------------------
Total:                                       126.709 100.0%

Memory usage: 573.84 MiB
Date: Thu Jul 23 23:47:19 2026
