
  ___ ___ ___ _ _ _  
 |   |   |_  | | | | 
 | | | | | . | | | | 
 |__ |  _|___|_____|  25.7.0
 |___|_|             

User:   buyer@DESKTOP-3EQA59H
Date:   Fri Jul 24 00:57:05 2026
Arch:   x86_64
Pid:    14237
CWD:    /mnt/c/Users/Buyer/dft-si
Python: 3.11.15
gpaw:   /home/buyer/miniconda3/envs/dft/lib/python3.11/site-packages/gpaw
_gpaw:  /home/buyer/miniconda3/envs/dft/lib/python3.11/site-packages/
        _gpaw.cpython-311-x86_64-linux-gnu.so
ase:    /home/buyer/miniconda3/envs/dft/lib/python3.11/site-packages/ase (version 3.29.0)
numpy:  /home/buyer/miniconda3/envs/dft/lib/python3.11/site-packages/numpy (version 2.4.6)
scipy:  /home/buyer/miniconda3/envs/dft/lib/python3.11/site-packages/scipy (version 1.17.1)
libxc:  7.0.0
units:  Angstrom and eV
cores: 1
OpenMP: True
OMP_NUM_THREADS: 1

Input parameters:
  kpts: [8 8 8]
  mode: {ecut: 600.0,
         name: pw}
  spinpol: True
  symmetry: {point_group: False}
  xc: PBE

System changes: positions, numbers, cell, pbc, initial_charges, initial_magmoms 

Initialize ...

species:
  Fe:
    name: Iron
    id: 37abbd8d6c3c35915a9b583b742da910
    Z: 26.0
    valence: 8
    core: 18
    charge: 0.0
    file: /home/buyer/miniconda3/envs/dft/lib/python3.11/site-packages/gpaw_data/setups/Fe.PBE.gz
    compensation charges: {type: gauss,
                           rc: 0.33,
                           lmax: 2}
    cutoffs: {filter: 2.06,
              core: 2.67}
    projectors:
      #              energy  rcut
      - 4s(2.00)    -5.291   1.164
      - 4p(0.00)    -1.326   1.058
      - 3d(6.00)    -7.505   1.058
      -  s          21.920   1.164
      -  p          25.885   1.058
      -  d          19.706   1.058
  
    # Using partial waves for Fe as LCAO basis

Reference energy: -69238.909200  # eV

Spin-polarized calculation.
Initial magnetic moment: 4.400000

Convergence criteria:
 Maximum [total energy] change in last 3 cyles: 0.0005 eV / valence electron
 Maximum integral of absolute [dens]ity change: 0.0001 electrons / valence electron
 Maximum integral of absolute [eigenst]ate change: 4e-08 eV^2 / valence electron
 Maximum number of scf [iter]ations: 333
 (Square brackets indicate name in SCF output, whereas a 'c' in
 the SCF output indicates the quantity has converged.)

Symmetries present (total): 1

  ( 1  0  0)
  ( 0  1  0)
  ( 0  0  1)

512 k-points: 8 x 8 x 8 Monkhorst-Pack grid
256 k-points in the irreducible part of the Brillouin zone
       k-points in crystal coordinates                weights
   0:     0.06250000   -0.43750000   -0.43750000          2/512
   1:     0.06250000   -0.43750000   -0.31250000          2/512
   2:     0.06250000   -0.43750000   -0.18750000          2/512
   3:     0.06250000   -0.43750000   -0.06250000          2/512
   4:     0.06250000   -0.43750000    0.06250000          2/512
   5:     0.06250000   -0.43750000    0.18750000          2/512
   6:     0.06250000   -0.43750000    0.31250000          2/512
   7:     0.06250000   -0.43750000    0.43750000          2/512
   8:     0.06250000   -0.31250000   -0.43750000          2/512
   9:     0.06250000   -0.31250000   -0.31250000          2/512
          ...
 255:     0.43750000    0.43750000    0.43750000          2/512

Wave functions: Plane wave expansion
  Cutoff energy: 600.000 eV
  Number of coefficients (min, max): 766, 797
  Pulay-stress correction: 0.000000 eV/Ang^3 (de/decut=0.000000)
  Using FFTW library
  ScaLapack parameters: grid=1x1, blocksize=None
  Wavefunction extrapolation:
    Improved wavefunction reuse through dual PAW basis 

Occupation numbers: Fermi-Dirac:
  width: 0.1000  # eV
 

Eigensolver
   Davidson(niter=2) 

Densities:
  Coarse grid: 18*18*18 grid
  Fine grid: 36*36*36 grid
  Total Charge: 0.000000 

Density mixing:
  Method: difference
  Backend: pulay
  Linear mixing parameter: 0.05
  old densities: 5
  Damping of long wavelength oscillations: 50 

Hamiltonian:
  XC and Coulomb potentials evaluated on a 36*36*36 grid
  Using the PBE Exchange-Correlation functional
  External potential:
    NoExternalPotential
 

XC parameters: PBE with 2 nearest neighbor stencil

Memory estimate:
  Process memory now: 860.92 MiB
  Calculator: 141.60 MiB
    Density: 3.01 MiB
      Arrays: 1.56 MiB
      Localized functions: 0.83 MiB
      Mixer: 0.62 MiB
    Hamiltonian: 1.17 MiB
      Arrays: 1.16 MiB
      XC: 0.00 MiB
      Poisson: 0.00 MiB
      vbar: 0.02 MiB
    Wavefunctions: 137.41 MiB
      Arrays psit_nG: 105.85 MiB
      Eigensolver: 0.31 MiB
      Projections: 4.78 MiB
      Projectors: 23.13 MiB
      PW-descriptor: 3.34 MiB

Total number of cores used: 1

Number of atoms: 2
Number of atomic orbitals: 18
Number of bands in calculation: 17
Number of valence electrons: 16
Bands to converge: occupied

... initialized

Initializing position-dependent things.

Density initialized from atomic densities
Creating initial wave functions:
  17 bands from LCAO basis set

                    
                    
                    
                    
           Fe       
                    
       Fe           
                    
                    
                    
                    

Atomic positions and initial magnetic moments

Positions:
   0 Fe    -0.000000    0.000000    0.000000    ( 0.0000,  0.0000,  2.2000)
   1 Fe     1.435008    1.435008    1.435008    ( 0.0000,  0.0000,  2.2000)

Unit cell:
           periodic     x           y           z      points  spacing
  1. axis:    yes    2.870017   -0.000000   -0.000000    18     0.1594
  2. axis:    yes   -0.000000    2.870017   -0.000001    18     0.1594
  3. axis:    yes   -0.000000   -0.000001    2.870017    18     0.1594

  Lengths:   2.870017   2.870017   2.870017
  Angles:   90.000021  90.000015  90.000011

Effective grid spacing dv^(1/3) = 0.1594

     iter     time        total  log10-change:  magmom
                         energy   eigst   dens
iter:   1 00:57:34   -17.809495                   +4.4078
iter:   2 00:57:50   -17.973641   -1.19  -1.48    +4.3153
iter:   3 00:58:03   -17.973331   -1.83  -1.49    +4.2653
iter:   4 00:58:18   -18.330587   -1.56  -1.76    +4.3333
iter:   5 00:58:30   -19.325884   -1.56  -1.27    +4.3091
iter:   6 00:58:43   -18.045349   -1.05  -1.09    +4.3109
iter:   7 00:58:55   -18.042688   -2.82  -2.23    +4.3376
iter:   8 00:59:08   -18.042430c  -3.84  -2.54    +4.3619
iter:   9 00:59:21   -18.071343   -2.65  -2.63    +4.3918
iter:  10 00:59:33   -18.074339   -4.34  -1.92    +4.3694
iter:  11 00:59:45   -18.041957   -2.66  -1.91    +4.5420
iter:  12 00:59:58   -18.042791   -4.78  -3.13    +4.4944
iter:  13 01:00:16   -18.042886c  -5.78  -2.82    +4.4754
iter:  14 01:00:32   -18.042922c  -6.47  -2.85    +4.4703
iter:  15 01:00:44   -18.042998c  -6.39  -2.86    +4.4714
iter:  16 01:00:56   -18.043091c  -6.35  -2.81    +4.4714
iter:  17 01:01:09   -18.043102c  -7.25  -2.78    +4.4715
iter:  18 01:01:22   -18.042756c  -4.53  -2.78    +4.4737
iter:  19 01:01:34   -18.042765c  -6.33  -3.87    +4.4723
iter:  20 01:01:47   -18.042800c  -6.82  -4.05c   +4.4634
iter:  21 01:01:59   -18.042848c  -5.23  -4.09c   +4.4627
iter:  22 01:02:11   -18.042796c  -6.03  -3.18    +4.4634
iter:  23 01:02:24   -18.042785c  -5.89  -3.48    +4.4637
iter:  24 01:02:36   -18.042788c  -7.13  -4.42c   +4.4634
iter:  25 01:02:52   -18.042785c  -7.90c -4.50c   +4.4642

Converged after 25 iterations.

Dipole moment: (0.000008, -0.000005, -0.000003) |e|*Ang

Total magnetic moment: (0.000000, 0.000000, 4.464171)
Local magnetic moments:
   0 Fe ( 0.000000,  0.000000,  2.270453)
   1 Fe ( 0.000000,  0.000000,  2.270453)

Energy contributions relative to reference atoms: (reference = -69238.909200)

Kinetic:        +12.513200
Potential:      -10.623789
External:        +0.000000
XC:             -20.023989
Entropy (-ST):   -0.066536
Local:           +0.125060
SIC:             +0.000000
--------------------------
Free energy:    -18.076053
Extrapolated:   -18.042785

Spin contamination: 0.122737 electrons
Showing only first 2 kpts
                      Up                     Down
 Kpt  Band  Eigenvalues  Occupancy  Eigenvalues  Occupancy
  0     6      8.48335    0.99998     11.02856    0.00000
  0     7      8.63218    0.99990     11.12623    0.00000
  0     8      8.93476    0.99802     11.50694    0.00000
  0     9      9.55861    0.49563     11.80180    0.00000

  1     6      8.32088    1.00000     10.73373    0.00001
  1     7      8.45222    0.99998     10.93037    0.00000
  1     8      8.97135    0.99714     11.55753    0.00000
  1     9      9.58229    0.43677     11.85719    0.00000


Fermi level: 9.55686

No gap
No difference between direct/indirect transitions
Timing:                              incl.     excl.
-----------------------------------------------------------
Hamiltonian:                         0.148     0.000   0.0% |
 Atomic:                             0.108     0.000   0.0% |
  XC Correction:                     0.107     0.107   0.0% |
 Calculate atomic Hamiltonians:      0.001     0.001   0.0% |
 Communicate:                        0.000     0.000   0.0% |
 Initialize Hamiltonian:             0.000     0.000   0.0% |
 Poisson:                            0.000     0.000   0.0% |
 XC 3D grid:                         0.039     0.039   0.0% |
LCAO initialization:                16.191     0.020   0.0% |
 LCAO eigensolver:                   0.916     0.009   0.0% |
  Calculate projections:             0.010     0.010   0.0% |
  DenseAtomicCorrection:             0.034     0.034   0.0% |
  Distribute overlap matrix:         0.006     0.006   0.0% |
  Orbital Layouts:                   0.090     0.090   0.0% |
  Potential matrix:                  0.647     0.647   0.2% |
  Sum over cells:                    0.120     0.120   0.0% |
 LCAO to grid:                      14.583    14.583   4.2% |-|
 Set positions (LCAO WFS):           0.673     0.116   0.0% |
  Basic WFS set positions:           0.000     0.000   0.0% |
  Basis functions set positions:     0.000     0.000   0.0% |
  P tci:                             0.224     0.224   0.1% |
  ST tci:                            0.327     0.327   0.1% |
  mktci:                             0.005     0.005   0.0% |
PWDescriptor:                        0.031     0.031   0.0% |
SCF-cycle:                         329.868     2.953   0.9% |
 Davidson:                         310.954    48.300  13.9% |-----|
  Apply H:                          43.385    41.627  12.0% |----|
   HMM T:                            1.758     1.758   0.5% |
  Subspace diag:                    55.802     0.767   0.2% |
   calc_h_matrix:                   48.300     4.849   1.4% ||
    Apply H:                        43.450    41.601  12.0% |----|
     HMM T:                          1.849     1.849   0.5% |
   diagonalize:                      2.719     2.719   0.8% |
   rotate_psi:                       4.015     4.015   1.2% |
  calc. matrices:                  108.218    21.711   6.3% |--|
   Apply H:                         86.507    83.063  23.9% |---------|
    HMM T:                           3.443     3.443   1.0% |
  diagonalize:                      47.268    47.268  13.6% |----|
  rotate_psi:                        7.982     7.982   2.3% ||
 Density:                           12.229     0.000   0.0% |
  Atomic density matrices:           0.267     0.267   0.1% |
  Mix:                               0.059     0.059   0.0% |
  Multipole moments:                 0.002     0.002   0.0% |
  Pseudo density:                   11.901    11.901   3.4% ||
   Symmetrize density:               0.000     0.000   0.0% |
 Hamiltonian:                        3.341     0.006   0.0% |
  Atomic:                            2.225     0.011   0.0% |
   XC Correction:                    2.214     2.214   0.6% |
  Calculate atomic Hamiltonians:     0.024     0.024   0.0% |
  Communicate:                       0.000     0.000   0.0% |
  Poisson:                           0.003     0.003   0.0% |
  XC 3D grid:                        1.083     1.083   0.3% |
 Orthonormalize:                     0.392     0.029   0.0% |
  calc_s_matrix:                     0.078     0.078   0.0% |
  inverse-cholesky:                  0.048     0.048   0.0% |
  projections:                       0.158     0.158   0.0% |
  rotate_psi_s:                      0.079     0.079   0.0% |
Set symmetry:                        0.005     0.005   0.0% |
Other:                               0.608     0.608   0.2% |
-----------------------------------------------------------
Total:                                       346.851 100.0%

Memory usage: 860.92 MiB
Date: Fri Jul 24 01:02:52 2026
