
  ___ ___ ___ _ _ _  
 |   |   |_  | | | | 
 | | | | | . | | | | 
 |__ |  _|___|_____|  25.7.0
 |___|_|             

User:   buyer@DESKTOP-3EQA59H
Date:   Thu Jul 23 23:34:42 2026
Arch:   x86_64
Pid:    14237
CWD:    /mnt/c/Users/Buyer/dft-si
Python: 3.11.15
gpaw:   /home/buyer/miniconda3/envs/dft/lib/python3.11/site-packages/gpaw
_gpaw:  /home/buyer/miniconda3/envs/dft/lib/python3.11/site-packages/
        _gpaw.cpython-311-x86_64-linux-gnu.so
ase:    /home/buyer/miniconda3/envs/dft/lib/python3.11/site-packages/ase (version 3.29.0)
numpy:  /home/buyer/miniconda3/envs/dft/lib/python3.11/site-packages/numpy (version 2.4.6)
scipy:  /home/buyer/miniconda3/envs/dft/lib/python3.11/site-packages/scipy (version 1.17.1)
libxc:  7.0.0
units:  Angstrom and eV
cores: 1
OpenMP: True
OMP_NUM_THREADS: 1

Input parameters:
  kpts: [6 6 6]
  mode: {ecut: 800.0,
         name: pw}
  symmetry: {point_group: False}
  xc: PBE

System changes: positions, numbers, cell, pbc, initial_charges, initial_magmoms 

Initialize ...

species:
  C:
    name: Carbon
    id: 4aa54d4b901d75f77cc0ea3eec22967b
    Z: 6.0
    valence: 4
    core: 2
    charge: 0.0
    file: /home/buyer/miniconda3/envs/dft/lib/python3.11/site-packages/gpaw_data/setups/C.PBE.gz
    compensation charges: {type: gauss,
                           rc: 0.20,
                           lmax: 2}
    cutoffs: {filter: 1.14,
              core: 1.14}
    projectors:
      #              energy  rcut
      - 2s(2.00)   -13.751   0.635
      - 2p(2.00)    -5.284   0.635
      -  s          13.461   0.635
      -  p          21.927   0.635
      -  d           0.000   0.635
  
    # Using partial waves for C as LCAO basis

Reference energy: -8221.024924  # eV

Spin-paired calculation

Convergence criteria:
 Maximum [total energy] change in last 3 cyles: 0.0005 eV / valence electron
 Maximum integral of absolute [dens]ity change: 0.0001 electrons / valence electron
 Maximum integral of absolute [eigenst]ate change: 4e-08 eV^2 / valence electron
 Maximum number of scf [iter]ations: 333
 (Square brackets indicate name in SCF output, whereas a 'c' in
 the SCF output indicates the quantity has converged.)

Symmetries present (total): 1

  ( 1  0  0)
  ( 0  1  0)
  ( 0  0  1)

216 k-points: 6 x 6 x 6 Monkhorst-Pack grid
108 k-points in the irreducible part of the Brillouin zone
       k-points in crystal coordinates                weights
   0:     0.08333333   -0.41666667   -0.41666667          2/216
   1:     0.08333333   -0.41666667   -0.25000000          2/216
   2:     0.08333333   -0.41666667   -0.08333333          2/216
   3:     0.08333333   -0.41666667    0.08333333          2/216
   4:     0.08333333   -0.41666667    0.25000000          2/216
   5:     0.08333333   -0.41666667    0.41666667          2/216
   6:     0.08333333   -0.25000000   -0.41666667          2/216
   7:     0.08333333   -0.25000000   -0.25000000          2/216
   8:     0.08333333   -0.25000000   -0.08333333          2/216
   9:     0.08333333   -0.25000000    0.08333333          2/216
          ...
 107:     0.41666667    0.41666667    0.41666667          2/216

Wave functions: Plane wave expansion
  Cutoff energy: 800.000 eV
  Number of coefficients (min, max): 2187, 2236
  Pulay-stress correction: 0.000000 eV/Ang^3 (de/decut=0.000000)
  Using FFTW library
  ScaLapack parameters: grid=1x1, blocksize=None
  Wavefunction extrapolation:
    Improved wavefunction reuse through dual PAW basis 

Occupation numbers: Fermi-Dirac:
  width: 0.1000  # eV
 

Eigensolver
   Davidson(niter=2) 

Densities:
  Coarse grid: 24*24*24 grid
  Fine grid: 48*48*48 grid
  Total Charge: 0.000000 

Density mixing:
  Method: separate
  Backend: pulay
  Linear mixing parameter: 0.05
  old densities: 5
  Damping of long wavelength oscillations: 50 

Hamiltonian:
  XC and Coulomb potentials evaluated on a 48*48*48 grid
  Using the PBE Exchange-Correlation functional
  External potential:
    NoExternalPotential
 

XC parameters: PBE with 2 nearest neighbor stencil

Memory estimate:
  Process memory now: 399.50 MiB
  Calculator: 131.12 MiB
    Density: 6.11 MiB
      Arrays: 2.74 MiB
      Localized functions: 2.32 MiB
      Mixer: 1.05 MiB
    Hamiltonian: 1.84 MiB
      Arrays: 1.79 MiB
      XC: 0.00 MiB
      Poisson: 0.00 MiB
      vbar: 0.05 MiB
    Wavefunctions: 123.17 MiB
      Arrays psit_nG: 88.44 MiB
      Eigensolver: 1.08 MiB
      Projections: 4.11 MiB
      Projectors: 25.33 MiB
      PW-descriptor: 4.21 MiB

Total number of cores used: 1

Number of atoms: 8
Number of atomic orbitals: 32
Number of bands in calculation: 24
Number of valence electrons: 32
Bands to converge: occupied

... initialized

Initializing position-dependent things.

Density initialized from atomic densities
Creating initial wave functions:
  24 bands from LCAO basis set

                        
                        
                        
                        
           C            
        C     C         
           C   C        
          C C           
       C                
                        
                        
                        
                        

Atomic positions and initial magnetic moments

Positions:
   0 C      0.000029    0.000013    0.000015    ( 0.0000,  0.0000,  0.0000)
   1 C      0.874535    0.874417    0.874427    ( 0.0000,  0.0000,  0.0000)
   2 C      0.000023    1.748917    1.748845    ( 0.0000,  0.0000,  0.0000)
   3 C      0.874497    2.623340    2.623290    ( 0.0000,  0.0000,  0.0000)
   4 C      1.748907    0.000013    1.748843    ( 0.0000,  0.0000,  0.0000)
   5 C      2.623195    0.874398    2.623304    ( 0.0000,  0.0000,  0.0000)
   6 C      1.748891    1.748865    0.000067    ( 0.0000,  0.0000,  0.0000)
   7 C      2.623194    2.623314    0.874477    ( 0.0000,  0.0000,  0.0000)

Unit cell:
           periodic     x           y           z      points  spacing
  1. axis:    yes    3.497744    0.000006    0.000006    24     0.1457
  2. axis:    yes    0.000006    3.497747    0.000005    24     0.1457
  3. axis:    yes    0.000006    0.000005    3.497746    24     0.1457

  Lengths:   3.497744   3.497747   3.497746
  Angles:   89.999840  89.999793  89.999805

Effective grid spacing dv^(1/3) = 0.1457

     iter     time        total  log10-change:
                         energy   eigst   dens
iter:   1 23:35:18   -74.880080
iter:   2 23:35:25   -74.578623   -2.13  -0.82
iter:   3 23:35:31   -72.925007   -0.59  -0.84
iter:   4 23:35:39   -72.907499   -2.46  -1.26
iter:   5 23:35:45   -72.666390   -2.59  -1.27
iter:   6 23:35:52   -72.905236   -2.46  -1.47
iter:   7 23:35:59   -92.607866   +0.09  -1.28
iter:   8 23:36:06   -87.058270   -1.91  -0.43
iter:   9 23:36:13   -72.525582   +0.01  -0.49
iter:  10 23:36:20   -72.523305   -2.24  -1.96
iter:  11 23:36:27   -72.523821c  -3.67  -2.94
iter:  12 23:36:33   -72.523758c  -4.28  -2.92
iter:  13 23:36:40   -72.523866c  -5.28  -3.17
iter:  14 23:36:47   -72.523769c  -4.57  -2.96
iter:  15 23:36:54   -72.523705c  -5.37  -3.08
iter:  16 23:37:02   -72.523712c  -6.15  -3.79
iter:  17 23:37:12   -72.523710c  -7.79c -3.87
iter:  18 23:37:19   -72.523709c  -7.17  -3.94
iter:  19 23:37:26   -72.523714c  -6.47  -4.06c
iter:  20 23:37:34   -72.523711c  -6.81  -4.00
iter:  21 23:37:41   -72.523711c  -7.49c -4.15c

Converged after 21 iterations.

Dipole moment: (-0.001487, -0.000690, -0.002323) |e|*Ang

Energy contributions relative to reference atoms: (reference = -8221.024924)

Kinetic:        +89.862050
Potential:      -80.287206
External:        +0.000000
XC:             -82.253614
Entropy (-ST):   -0.000000
Local:           +0.155058
SIC:             +0.000000
--------------------------
Free energy:    -72.523711
Extrapolated:   -72.523711

Showing only first 2 kpts
 Kpt  Band  Eigenvalues  Occupancy
  0    14      9.32242    2.00000
  0    15     10.77983    2.00000
  0    16     20.48889    0.00000
  0    17     21.92522    0.00000

  1    14      8.89121    2.00000
  1    15     10.97027    2.00000
  1    16     19.70522    0.00000
  1    17     20.11093    0.00000


Fermi level: 15.64338

Gap: 5.098 eV
Transition (v -> c):
  (s=0, k=14, n=15, [0.08, -0.08, -0.08]) -> (s=0, k=56, n=16, [0.25, 0.08, -0.08])
Direct/indirect transitions are different
Direct gap: 5.245 eV
Transition at: (s=0, k=14, n=15, [0.08, -0.08, -0.08])
Timing:                              incl.     excl.
-----------------------------------------------------------
Hamiltonian:                         0.156     0.000   0.0% |
 Atomic:                             0.113     0.001   0.0% |
  XC Correction:                     0.112     0.112   0.1% |
 Calculate atomic Hamiltonians:      0.009     0.009   0.0% |
 Communicate:                        0.000     0.000   0.0% |
 Initialize Hamiltonian:             0.000     0.000   0.0% |
 Poisson:                            0.000     0.000   0.0% |
 XC 3D grid:                         0.034     0.034   0.0% |
LCAO initialization:                28.046     0.007   0.0% |
 LCAO eigensolver:                   1.373     0.002   0.0% |
  Calculate projections:             0.006     0.006   0.0% |
  DenseAtomicCorrection:             0.021     0.021   0.0% |
  Distribute overlap matrix:         0.002     0.002   0.0% |
  Orbital Layouts:                   0.063     0.063   0.0% |
  Potential matrix:                  1.216     1.216   0.7% |
  Sum over cells:                    0.063     0.063   0.0% |
 LCAO to grid:                      24.650    24.650  13.8% |-----|
 Set positions (LCAO WFS):           2.016     0.274   0.2% |
  Basic WFS set positions:           0.000     0.000   0.0% |
  Basis functions set positions:     0.000     0.000   0.0% |
  P tci:                             0.736     0.736   0.4% |
  ST tci:                            0.990     0.990   0.6% |
  mktci:                             0.016     0.016   0.0% |
PWDescriptor:                        0.029     0.029   0.0% |
SCF-cycle:                         150.285     0.308   0.2% |
 Davidson:                         140.015    32.120  18.0% |------|
  Apply H:                          18.479    17.815  10.0% |---|
   HMM T:                            0.664     0.664   0.4% |
  Subspace diag:                    25.169     0.179   0.1% |
   calc_h_matrix:                   20.284     1.868   1.0% |
    Apply H:                        18.416    17.662   9.9% |---|
     HMM T:                          0.754     0.754   0.4% |
   diagonalize:                      0.690     0.690   0.4% |
   rotate_psi:                       4.015     4.015   2.2% ||
  calc. matrices:                   47.039     9.716   5.4% |-|
   Apply H:                         37.323    35.836  20.0% |-------|
    HMM T:                           1.487     1.487   0.8% |
  diagonalize:                      10.508    10.508   5.9% |-|
  rotate_psi:                        6.701     6.701   3.7% ||
 Density:                            6.260     0.000   0.0% |
  Atomic density matrices:           0.181     0.181   0.1% |
  Mix:                               0.484     0.484   0.3% |
  Multipole moments:                 0.002     0.002   0.0% |
  Pseudo density:                    5.593     5.592   3.1% ||
   Symmetrize density:               0.000     0.000   0.0% |
 Hamiltonian:                        3.176     0.010   0.0% |
  Atomic:                            2.231     0.014   0.0% |
   XC Correction:                    2.217     2.217   1.2% |
  Calculate atomic Hamiltonians:     0.193     0.193   0.1% |
  Communicate:                       0.000     0.000   0.0% |
  Poisson:                           0.007     0.007   0.0% |
  XC 3D grid:                        0.735     0.735   0.4% |
 Orthonormalize:                     0.527     0.007   0.0% |
  calc_s_matrix:                     0.052     0.052   0.0% |
  inverse-cholesky:                  0.013     0.013   0.0% |
  projections:                       0.366     0.366   0.2% |
  rotate_psi_s:                      0.088     0.088   0.0% |
Set symmetry:                        0.002     0.002   0.0% |
Other:                               0.253     0.253   0.1% |
-----------------------------------------------------------
Total:                                       178.772 100.0%

Memory usage: 555.69 MiB
Date: Thu Jul 23 23:37:41 2026
