
  ___ ___ ___ _ _ _  
 |   |   |_  | | | | 
 | | | | | . | | | | 
 |__ |  _|___|_____|  25.7.0
 |___|_|             

User:   buyer@DESKTOP-3EQA59H
Date:   Fri Jul 24 00:07:32 2026
Arch:   x86_64
Pid:    14237
CWD:    /mnt/c/Users/Buyer/dft-si
Python: 3.11.15
gpaw:   /home/buyer/miniconda3/envs/dft/lib/python3.11/site-packages/gpaw
_gpaw:  /home/buyer/miniconda3/envs/dft/lib/python3.11/site-packages/
        _gpaw.cpython-311-x86_64-linux-gnu.so
ase:    /home/buyer/miniconda3/envs/dft/lib/python3.11/site-packages/ase (version 3.29.0)
numpy:  /home/buyer/miniconda3/envs/dft/lib/python3.11/site-packages/numpy (version 2.4.6)
scipy:  /home/buyer/miniconda3/envs/dft/lib/python3.11/site-packages/scipy (version 1.17.1)
libxc:  7.0.0
units:  Angstrom and eV
cores: 1
OpenMP: True
OMP_NUM_THREADS: 1

Input parameters:
  kpts: [6 6 6]
  mode: {ecut: 500.0,
         name: pw}
  symmetry: {point_group: False}
  xc: PBE

System changes: positions, numbers, cell, pbc, initial_charges, initial_magmoms 

Initialize ...

species:
  Si:
    name: Silicon
    id: ee77bee481871cc2cb65ac61239ccafa
    Z: 14.0
    valence: 4
    core: 10
    charge: 0.0
    file: /home/buyer/miniconda3/envs/dft/lib/python3.11/site-packages/gpaw_data/setups/Si.PBE.gz
    compensation charges: {type: gauss,
                           rc: 0.33,
                           lmax: 2}
    cutoffs: {filter: 1.86,
              core: 2.06}
    projectors:
      #              energy  rcut
      - 3s(2.00)   -10.812   1.058
      - 3p(2.00)    -4.081   1.058
      -  s          16.399   1.058
      -  p          23.130   1.058
      -  d           0.000   1.058
  
    # Using partial waves for Si as LCAO basis

Reference energy: -63090.754002  # eV

Spin-paired calculation

Convergence criteria:
 Maximum [total energy] change in last 3 cyles: 0.0005 eV / valence electron
 Maximum integral of absolute [dens]ity change: 0.0001 electrons / valence electron
 Maximum integral of absolute [eigenst]ate change: 4e-08 eV^2 / valence electron
 Maximum number of scf [iter]ations: 333
 (Square brackets indicate name in SCF output, whereas a 'c' in
 the SCF output indicates the quantity has converged.)

Symmetries present (total): 1

  ( 1  0  0)
  ( 0  1  0)
  ( 0  0  1)

216 k-points: 6 x 6 x 6 Monkhorst-Pack grid
108 k-points in the irreducible part of the Brillouin zone
       k-points in crystal coordinates                weights
   0:     0.08333333   -0.41666667   -0.41666667          2/216
   1:     0.08333333   -0.41666667   -0.25000000          2/216
   2:     0.08333333   -0.41666667   -0.08333333          2/216
   3:     0.08333333   -0.41666667    0.08333333          2/216
   4:     0.08333333   -0.41666667    0.25000000          2/216
   5:     0.08333333   -0.41666667    0.41666667          2/216
   6:     0.08333333   -0.25000000   -0.41666667          2/216
   7:     0.08333333   -0.25000000   -0.25000000          2/216
   8:     0.08333333   -0.25000000   -0.08333333          2/216
   9:     0.08333333   -0.25000000    0.08333333          2/216
          ...
 107:     0.41666667    0.41666667    0.41666667          2/216

Wave functions: Plane wave expansion
  Cutoff energy: 500.000 eV
  Number of coefficients (min, max): 4274, 4302
  Pulay-stress correction: 0.000000 eV/Ang^3 (de/decut=0.000000)
  Using FFTW library
  ScaLapack parameters: grid=1x1, blocksize=None
  Wavefunction extrapolation:
    Improved wavefunction reuse through dual PAW basis 

Occupation numbers: Fermi-Dirac:
  width: 0.1000  # eV
 

Eigensolver
   Davidson(niter=2) 

Densities:
  Coarse grid: 30*30*30 grid
  Fine grid: 60*60*60 grid
  Total Charge: 0.000000 

Density mixing:
  Method: separate
  Backend: pulay
  Linear mixing parameter: 0.05
  old densities: 5
  Damping of long wavelength oscillations: 50 

Hamiltonian:
  XC and Coulomb potentials evaluated on a 60*60*60 grid
  Using the PBE Exchange-Correlation functional
  External potential:
    NoExternalPotential
 

XC parameters: PBE with 2 nearest neighbor stencil

Memory estimate:
  Process memory now: 836.88 MiB
  Calculator: 249.41 MiB
    Density: 11.96 MiB
      Arrays: 5.36 MiB
      Localized functions: 4.54 MiB
      Mixer: 2.06 MiB
    Hamiltonian: 3.59 MiB
      Arrays: 3.50 MiB
      XC: 0.00 MiB
      Poisson: 0.00 MiB
      vbar: 0.09 MiB
    Wavefunctions: 233.86 MiB
      Arrays psit_nG: 170.15 MiB
      Eigensolver: 1.99 MiB
      Projections: 4.11 MiB
      Projectors: 49.48 MiB
      PW-descriptor: 8.12 MiB

Total number of cores used: 1

Number of atoms: 8
Number of atomic orbitals: 32
Number of bands in calculation: 24
Number of valence electrons: 32
Bands to converge: occupied

... initialized

Initializing position-dependent things.

Density initialized from atomic densities
Creating initial wave functions:
  24 bands from LCAO basis set

                             
                             
                             
                             
             Si              
                  Si         
         Si                  
                    Si       
              Si             
           Si                
                Si           
       Si                    
                             
                             
                             
                             

Atomic positions and initial magnetic moments

Positions:
   0 Si    -0.000024   -0.000109    0.000108    ( 0.0000,  0.0000,  0.0000)
   1 Si     1.381846    1.382027    1.382058    ( 0.0000,  0.0000,  0.0000)
   2 Si    -0.000016    2.764290    2.764094    ( 0.0000,  0.0000,  0.0000)
   3 Si     1.381836    4.146357    4.146306    ( 0.0000,  0.0000,  0.0000)
   4 Si     2.764199   -0.000127    2.764067    ( 0.0000,  0.0000,  0.0000)
   5 Si     4.146567    1.382022    4.146309    ( 0.0000,  0.0000,  0.0000)
   6 Si     2.764189    2.764299    0.000133    ( 0.0000,  0.0000,  0.0000)
   7 Si     4.146525    4.146364    1.382064    ( 0.0000,  0.0000,  0.0000)

Unit cell:
           periodic     x           y           z      points  spacing
  1. axis:    yes    5.528374   -0.000003    0.000003    30     0.1843
  2. axis:    yes   -0.000003    5.528374    0.000003    30     0.1843
  3. axis:    yes    0.000003    0.000003    5.528374    30     0.1843

  Lengths:   5.528374   5.528374   5.528374
  Angles:   89.999945  89.999946  90.000052

Effective grid spacing dv^(1/3) = 0.1843

     iter     time        total  log10-change:
                         energy   eigst   dens
iter:   1 00:08:01   -43.414456
iter:   2 00:08:14   -43.441577   -1.85  -0.82
iter:   3 00:08:26   -43.355701   -1.59  -0.82
iter:   4 00:08:37   -43.301800   -3.02  -1.18
iter:   5 00:08:49   -43.303494   -4.07  -1.26
iter:   6 00:09:00   -43.159704   -2.56  -1.28
iter:   7 00:09:12   -43.160100   -4.14  -2.95
iter:   8 00:09:24   -43.160091c  -5.10  -2.88
iter:   9 00:09:36   -43.160141c  -5.26  -3.04
iter:  10 00:09:47   -43.160081c  -6.31  -3.02
iter:  11 00:09:59   -43.160079c  -7.22  -3.93
iter:  12 00:10:10   -43.160080c  -7.88c -4.11c

Converged after 12 iterations.

Dipole moment: (0.001205, 0.006806, -0.006867) |e|*Ang

Energy contributions relative to reference atoms: (reference = -63090.754002)

Kinetic:        +42.585339
Potential:      -39.060798
External:        +0.000000
XC:             -46.603425
Entropy (-ST):   -0.002046
Local:           -0.080172
SIC:             +0.000000
--------------------------
Free energy:    -43.161103
Extrapolated:   -43.160080

Showing only first 2 kpts
 Kpt  Band  Eigenvalues  Occupancy
  0    14      3.23623    2.00000
  0    15      3.91767    1.99999
  0    16      6.83727    0.00000
  0    17      7.46761    0.00000

  1    14      2.98881    2.00000
  1    15      3.86546    1.99999
  1    16      6.93641    0.00000
  1    17      6.96232    0.00000


Fermi level: 5.14597

Gap: 0.999 eV
Transition (v -> c):
  (s=0, k=15, n=15, [0.08, -0.08, 0.08]) -> (s=0, k=14, n=16, [0.08, -0.08, -0.08])
Direct/indirect transitions are different
Direct gap: 0.999 eV
Transition at: (s=0, k=14, n=15, [0.08, -0.08, -0.08])
Timing:                              incl.     excl.
-----------------------------------------------------------
Hamiltonian:                         0.213     0.001   0.0% |
 Atomic:                             0.123     0.001   0.0% |
  XC Correction:                     0.122     0.122   0.1% |
 Calculate atomic Hamiltonians:      0.017     0.017   0.0% |
 Communicate:                        0.000     0.000   0.0% |
 Initialize Hamiltonian:             0.000     0.000   0.0% |
 Poisson:                            0.001     0.001   0.0% |
 XC 3D grid:                         0.072     0.072   0.0% |
LCAO initialization:                13.093     0.007   0.0% |
 LCAO eigensolver:                   0.344     0.002   0.0% |
  Calculate projections:             0.006     0.006   0.0% |
  DenseAtomicCorrection:             0.021     0.021   0.0% |
  Distribute overlap matrix:         0.002     0.002   0.0% |
  Orbital Layouts:                   0.070     0.070   0.0% |
  Potential matrix:                  0.200     0.200   0.1% |
  Sum over cells:                    0.043     0.043   0.0% |
 LCAO to grid:                      11.774    11.774   7.4% |--|
 Set positions (LCAO WFS):           0.968     0.108   0.1% |
  Basic WFS set positions:           0.000     0.000   0.0% |
  Basis functions set positions:     0.000     0.000   0.0% |
  P tci:                             0.565     0.565   0.4% |
  ST tci:                            0.287     0.287   0.2% |
  mktci:                             0.007     0.007   0.0% |
PWDescriptor:                        0.057     0.057   0.0% |
SCF-cycle:                         144.781     0.159   0.1% |
 Davidson:                         134.436    25.383  16.0% |-----|
  Apply H:                          21.192    20.581  13.0% |----|
   HMM T:                            0.611     0.611   0.4% |
  Subspace diag:                    25.809     0.107   0.1% |
   calc_h_matrix:                   22.433     1.345   0.8% |
    Apply H:                        21.087    20.423  12.9% |----|
     HMM T:                          0.665     0.665   0.4% |
   diagonalize:                      0.407     0.407   0.3% |
   rotate_psi:                       2.861     2.861   1.8% ||
  calc. matrices:                   50.452     7.913   5.0% |-|
   Apply H:                         42.539    41.213  26.0% |---------|
    HMM T:                           1.326     1.326   0.8% |
  diagonalize:                       6.677     6.677   4.2% |-|
  rotate_psi:                        4.923     4.923   3.1% ||
 Density:                            6.699     0.000   0.0% |
  Atomic density matrices:           0.101     0.101   0.1% |
  Mix:                               0.226     0.226   0.1% |
  Multipole moments:                 0.001     0.001   0.0% |
  Pseudo density:                    6.370     6.370   4.0% |-|
   Symmetrize density:               0.000     0.000   0.0% |
 Hamiltonian:                        2.315     0.007   0.0% |
  Atomic:                            1.402     0.009   0.0% |
   XC Correction:                    1.393     1.393   0.9% |
  Calculate atomic Hamiltonians:     0.158     0.158   0.1% |
  Communicate:                       0.000     0.000   0.0% |
  Poisson:                           0.007     0.007   0.0% |
  XC 3D grid:                        0.740     0.740   0.5% |
 Orthonormalize:                     1.172     0.010   0.0% |
  calc_s_matrix:                     0.112     0.112   0.1% |
  inverse-cholesky:                  0.015     0.015   0.0% |
  projections:                       0.731     0.731   0.5% |
  rotate_psi_s:                      0.304     0.304   0.2% |
Set symmetry:                        0.003     0.003   0.0% |
Other:                               0.269     0.269   0.2% |
-----------------------------------------------------------
Total:                                       158.416 100.0%

Memory usage: 841.65 MiB
Date: Fri Jul 24 00:10:10 2026
