41
Lattice="12.78 0.0 0.0 0.0 12.78 0.0 0.0 0.0 12.78" Properties=species:S:1:pos:R:3:spacegroup_kinds:I:1:forces:R:3:energies:R:1 spacegroup="P m -3 m" unit_cell=conventional energy=-115.73261089197254 stress="0.0014149398074338698 7.187258539077061e-05 0.00010795943525068215 7.187258539077061e-05 0.00032163808071279914 2.8907291171320642e-05 0.00010795943525068215 2.8907291171320642e-05 0.002014617361125771" free_energy=-115.73261089197254 pbc="T T T"
Cs       0.08427529      -0.00846240       0.61862243        0       0.00558227      -0.00095873       0.00068535      -3.57325981
Pb       3.13542144       3.27139174       3.32295479        1      -0.00127262       0.01730157       0.00107938      -4.35499915
I        2.46921103       3.76881000       0.15878926        2      -0.00363469      -0.00252714      -0.00134852      -2.09936555
I       -0.03234523       2.76226685       3.92323496        2      -0.00001494       0.00403691      -0.00201239      -2.13845471
I        3.42733462       0.01383290       2.82664584        2      -0.00447476      -0.00701368      -0.00622934      -2.19330154
Cs       1.02965322       0.02066143       6.70468354        0      -0.00682280      -0.00318543      -0.00622272      -3.51190544
Pb       3.16298400       3.30093699       9.75970973        1      -0.00154420      -0.01370265       0.00132174      -4.40047431
I        3.86965677       2.76418686       6.51455961        2       0.00240326       0.00215433      -0.00022767      -2.14928793
I       -0.01468570       3.72416399       8.88085333        2      -0.00080610       0.00201673      -0.00017252      -2.07242690
I        2.99073643       0.03908503      10.36777394        2       0.00323438       0.00479721       0.00034542      -2.12704707
Cs      -0.38320494       6.35181359      -0.86663809        0       0.00398122       0.00024624      -0.00041654      -3.55655603
Pb       3.12577377       9.52822903       3.32972221        1      -0.00301758      -0.01456984      -0.00212095      -4.35442518
I        2.38955323       9.06479781       0.15623972        2       0.00371078       0.00104956      -0.00204920      -2.09709708
I       -0.04834279       9.99957486       3.96515361        2      -0.00471049      -0.00024441      -0.00020366      -2.13351088
I        2.96394919       6.39797743       4.11832332        2      -0.00566764       0.00770442       0.00103708      -2.10397635
Cs      -0.67144549       6.35844792       6.14385429        0       0.00257393       0.00608259      -0.00047322      -3.54243328
Pb       3.16624416       9.56711998       9.78844963        1      -0.01483514       0.00844783       0.00473191      -4.39446098
I        3.86860255      10.05302274       6.51931610        2      -0.00648490      -0.00678109       0.00766659      -2.14220108
I       -0.07340237       9.09751409       8.84260872        2       0.00686564      -0.00626978      -0.00426872      -2.07768666
I        3.33818319       6.44197412       9.20599446        2      -0.00580829      -0.00391243      -0.00278423      -2.03661939
Cs       6.24841266       0.09943555      -0.03869189        0      -0.00926435      -0.00141444       0.00356861      -3.54858180
Pb       9.56594390       3.18157496       3.11930092        1       0.00317535      -0.00413797      -0.00724962      -4.36710326
I       10.12673815       3.03947390      -0.11055822        2      -0.00545961      -0.00682583      -0.00411962      -2.09454698
I        6.34505820       3.46839294       2.62614355        2      -0.00380146       0.00441254       0.00791661      -2.12988873
I        9.18121128      -0.01664949       2.81856279        2       0.00604018       0.00016909       0.00597945      -2.14255030
Cs       6.47630968      -0.00167090       5.51790430        0       0.00264647       0.00088053      -0.00171877      -3.52584969
Pb       9.59876616       2.47104180       9.47997778        1       0.01262658      -0.00203417       0.00250860      -4.34911679
I        8.92037746       3.31542329       6.28806255        2      -0.00827508       0.00736587       0.00062988      -2.12738753
I        6.24396794       3.52707009      10.39816611        2       0.01056095      -0.00156585       0.00202622      -2.02546819
I       11.43706919      -0.00705407       9.73694938        2      -0.00085988       0.00118104       0.00009107      -1.97874835
Cs       6.54924242       6.40701709       0.06327397        0      -0.00028112       0.00658483      -0.00905794      -3.52880269
Pb       9.55876638       9.56881610       3.10993402        1      -0.00275348       0.00112636       0.00507536      -4.36940512
I       10.22827929       9.66194682      -0.08590887        2      -0.00008843       0.00665210       0.00944580      -2.08665912
I        6.32508255       9.34764135       2.59817770        2       0.00696327      -0.01095725       0.00252393      -2.11679270
I        9.94572567       6.37222846       2.83717074        2       0.01061961      -0.00388253       0.00138989      -2.13287564
Cs       6.27340669       6.33326286       6.62662948        0       0.00670719      -0.00137950      -0.00451947      -3.54027284
Pb       9.58438026       9.74171618       9.49613355        1      -0.00605082      -0.00200805      -0.00075554      -4.43255309
I        8.81012305       9.41216684       6.26282418        2       0.00270815      -0.00148287       0.00140124      -2.11685045
I        6.20361663       9.42320153      10.51443354        2       0.00725676       0.00018073       0.00652697      -2.03234542
I        9.25438089       6.59194636       9.56440388        2      -0.00141596       0.01281526      -0.01013663      -2.05596273
I        7.68746087       0.02270484       9.10858166        0      -0.00031165      -0.00035208       0.00013616      -1.97136016
