
  ___ ___ ___ _ _ _  
 |   |   |_  | | | | 
 | | | | | . | | | | 
 |__ |  _|___|_____|  25.7.0
 |___|_|             

User:   buyer@DESKTOP-3EQA59H
Date:   Mon Jul 20 00:54:57 2026
Arch:   x86_64
Pid:    38761
CWD:    /mnt/c/Users/Buyer/dft-si
Python: 3.11.15
gpaw:   /home/buyer/miniconda3/envs/dft/lib/python3.11/site-packages/gpaw
_gpaw:  /home/buyer/miniconda3/envs/dft/lib/python3.11/site-packages/
        _gpaw.cpython-311-x86_64-linux-gnu.so
ase:    /home/buyer/miniconda3/envs/dft/lib/python3.11/site-packages/ase (version 3.29.0)
numpy:  /home/buyer/miniconda3/envs/dft/lib/python3.11/site-packages/numpy (version 2.4.6)
scipy:  /home/buyer/miniconda3/envs/dft/lib/python3.11/site-packages/scipy (version 1.17.1)
libxc:  7.0.0
units:  Angstrom and eV
cores: 1
OpenMP: True
OMP_NUM_THREADS: 1

Input parameters:
  kpts: [2 2 2]
  mode: {ecut: 600.0,
         name: pw}
  xc: PBE

System changes: positions, numbers, cell, pbc, initial_charges, initial_magmoms 

Initialize ...

species:
  Cs:
    name: Caesium
    id: fa822afd343f47335d508b9ee4f394c3
    Z: 55.0
    valence: 9
    core: 46
    charge: 0.0
    file: /home/buyer/miniconda3/envs/dft/lib/python3.11/site-packages/gpaw_data/setups/Cs.PBE.gz
    compensation charges: {type: gauss,
                           rc: 0.33,
                           lmax: 2}
    cutoffs: {filter: 2.06,
              core: 2.51}
    projectors:
      #              energy  rcut
      - 5s(2.00)   -26.706   1.164
      - 6s(1.00)    -2.085   1.164
      - 5p(6.00)   -13.523   1.058
      -  p          13.688   1.058
      -  d           0.000   1.058
  
    # Using partial waves for Cs as LCAO basis

  Pb:
    name: Lead
    id: 66e73b13d76dc837202bcdb13fee58e6
    Z: 82.0
    valence: 14
    core: 68
    charge: 0.0
    file: /home/buyer/miniconda3/envs/dft/lib/python3.11/site-packages/gpaw_data/setups/Pb.PBE.gz
    compensation charges: {type: gauss,
                           rc: 0.38,
                           lmax: 2}
    cutoffs: {filter: 2.36,
              core: 2.43}
    projectors:
      #              energy  rcut
      - 6s(2.00)   -11.969   1.259
      - 6p(2.00)    -3.506   1.275
      - 5d(10.00)   -21.211   1.217
      -  s          15.243   1.259
      -  p          23.705   1.275
      -  d           6.001   1.217
  
    # Using partial waves for Pb as LCAO basis

  I:
    name: Iodine
    id: 91405a398e4dfe788ff04f57531604ec
    Z: 53.0
    valence: 7
    core: 46
    charge: 0.0
    file: /home/buyer/miniconda3/envs/dft/lib/python3.11/site-packages/gpaw_data/setups/I.PBE.gz
    compensation charges: {type: gauss,
                           rc: 0.37,
                           lmax: 2}
    cutoffs: {filter: 2.06,
              core: 2.90}
    projectors:
      #              energy  rcut
      - 5s(2.00)   -17.382   1.164
      - 5p(5.00)    -7.088   1.164
      -  s           9.829   1.164
      -  p          20.123   1.164
      -  d           0.000   1.164
  
    # Using partial waves for I as LCAO basis

Reference energy: -10684034.619125  # eV

Spin-paired calculation

Convergence criteria:
 Maximum [total energy] change in last 3 cyles: 0.0005 eV / valence electron
 Maximum integral of absolute [dens]ity change: 0.0001 electrons / valence electron
 Maximum integral of absolute [eigenst]ate change: 4e-08 eV^2 / valence electron
 Maximum number of scf [iter]ations: 333
 (Square brackets indicate name in SCF output, whereas a 'c' in
 the SCF output indicates the quantity has converged.)

Symmetries present (total): 1

  ( 1  0  0)
  ( 0  1  0)
  ( 0  0  1)

8 k-points: 2 x 2 x 2 Monkhorst-Pack grid
4 k-points in the irreducible part of the Brillouin zone
       k-points in crystal coordinates                weights
   0:     0.25000000   -0.25000000   -0.25000000          2/8
   1:     0.25000000   -0.25000000    0.25000000          2/8
   2:     0.25000000    0.25000000   -0.25000000          2/8
   3:     0.25000000    0.25000000    0.25000000          2/8

Wave functions: Plane wave expansion
  Cutoff energy: 600.000 eV
  Number of coefficients (min, max): 69650, 69650
  Pulay-stress correction: 0.000000 eV/Ang^3 (de/decut=0.000000)
  Using FFTW library
  ScaLapack parameters: grid=1x1, blocksize=None
  Wavefunction extrapolation:
    Improved wavefunction reuse through dual PAW basis 

Occupation numbers: Fermi-Dirac:
  width: 0.1000  # eV
 

Eigensolver
   Davidson(niter=2) 

Densities:
  Coarse grid: 75*75*75 grid
  Fine grid: 150*150*150 grid
  Total Charge: 0.000000 

Density mixing:
  Method: separate
  Backend: pulay
  Linear mixing parameter: 0.05
  old densities: 5
  Damping of long wavelength oscillations: 50 

Hamiltonian:
  XC and Coulomb potentials evaluated on a 150*150*150 grid
  Using the PBE Exchange-Correlation functional
  External potential:
    NoExternalPotential
 

XC parameters: PBE with 2 nearest neighbor stencil

Memory estimate:
  Process memory now: 15100.25 MiB
  Calculator: 1460.82 MiB
    Density: 227.10 MiB
      Arrays: 83.68 MiB
      Localized functions: 111.23 MiB
      Mixer: 32.19 MiB
    Hamiltonian: 57.72 MiB
      Arrays: 54.72 MiB
      XC: 0.00 MiB
      Poisson: 0.00 MiB
      vbar: 3.01 MiB
    Wavefunctions: 1175.99 MiB
      Arrays psit_nG: 867.22 MiB
      Eigensolver: 228.48 MiB
      Projections: 6.81 MiB
      Projectors: 53.14 MiB
      PW-descriptor: 20.34 MiB

Total number of cores used: 1

Number of atoms: 39
Number of atomic orbitals: 204
Number of bands in calculation: 204
Number of valence electrons: 345
Bands to converge: occupied

... initialized

Initializing position-dependent things.

Density initialized from atomic densities
Creating initial wave functions:
  204 bands from LCAO basis set

         .---------------Cs-------------Cs 
        /|                              |  
       / |                    I         |  
      /  |                              |  
     /   |           Cs         I   Cs  |  
    /    |                              |  
   /     |     Pb      I      Pb      I |  
  /      |                              |  
 *       Cs  I          Cs  I           |  
 |       |                              |  
 | I     | Pb  I  I       Pb  I         |  
 |       |                              |  
 |   Cs  I          Cs                  |  
 |       |                              |  
 |       | I   Pb     I   I   Pb      I |  
 |       |                              |  
 |       .---I--------------I-----------.  
 |      /                              /   
 |     /   Pb  I   I      Pb          /    
 |    /                              /     
 |   /   I              I           /      
 |  /    I                         /       
 | /                      I       /        
 |/                              /         
 *------------------------------*          

Atomic positions and initial magnetic moments

Positions:
   0 Cs    -0.040347   -0.182201   -0.141643    ( 0.0000,  0.0000,  0.0000)
   1 Pb     3.279400    3.195000    3.198724    ( 0.0000,  0.0000,  0.0000)
   2 I      2.573384    3.195031    0.545702    ( 0.0000,  0.0000,  0.0000)
   3 I      3.123575    0.026575    3.177288    ( 0.0000,  0.0000,  0.0000)
   4 Cs     0.017454   -0.136648    6.545029    ( 0.0000,  0.0000,  0.0000)
   5 Pb     3.187318    3.194998    9.591958    ( 0.0000,  0.0000,  0.0000)
   6 I      3.135433    3.194968    6.374707    ( 0.0000,  0.0000,  0.0000)
   7 I      0.001158    3.194993    9.588975    ( 0.0000,  0.0000,  0.0000)
   8 I      3.184610    0.001354    9.612829    ( 0.0000,  0.0000,  0.0000)
   9 Cs    -0.040344    6.572206   -0.141647    ( 0.0000,  0.0000,  0.0000)
  10 Pb     3.187270    9.585008    3.195265    ( 0.0000,  0.0000,  0.0000)
  11 I      3.184046    9.584981    0.002560    ( 0.0000,  0.0000,  0.0000)
  12 I     -0.000554    9.585001    3.192632    ( 0.0000,  0.0000,  0.0000)
  13 I      3.123587    6.363436    3.177349    ( 0.0000,  0.0000,  0.0000)
  14 Cs     0.017455    6.526653    6.545031    ( 0.0000,  0.0000,  0.0000)
  15 Pb     3.208515    9.585006    9.589458    ( 0.0000,  0.0000,  0.0000)
  16 I      3.184812    9.585039    6.391639    ( 0.0000,  0.0000,  0.0000)
  17 I     -0.001599    9.585010    9.590219    ( 0.0000,  0.0000,  0.0000)
  18 I      3.184611    6.388653    9.612772    ( 0.0000,  0.0000,  0.0000)
  19 Cs     6.431645   -0.069339   -0.024836    ( 0.0000,  0.0000,  0.0000)
  20 Pb     9.503073    3.194998    3.199451    ( 0.0000,  0.0000,  0.0000)
  21 I      9.675955    3.194994    0.030900    ( 0.0000,  0.0000,  0.0000)
  22 I      6.390225    3.194988    3.156753    ( 0.0000,  0.0000,  0.0000)
  23 I      9.655911    0.025116    3.192932    ( 0.0000,  0.0000,  0.0000)
  24 Cs     6.372650   -0.006728    6.416737    ( 0.0000,  0.0000,  0.0000)
  25 Pb     9.592424    3.194997    9.594807    ( 0.0000,  0.0000,  0.0000)
  26 I      9.640104    3.194991    6.369182    ( 0.0000,  0.0000,  0.0000)
  27 I      6.388531    3.194993    9.635989    ( 0.0000,  0.0000,  0.0000)
  28 I      9.595311   -0.001052    9.586143    ( 0.0000,  0.0000,  0.0000)
  29 Cs     6.431639    6.459340   -0.024834    ( 0.0000,  0.0000,  0.0000)
  30 Pb     9.592049    9.585005    3.203574    ( 0.0000,  0.0000,  0.0000)
  31 I      9.590822    9.585003   -0.000140    ( 0.0000,  0.0000,  0.0000)
  32 I      6.389923    9.585016    3.195053    ( 0.0000,  0.0000,  0.0000)
  33 I      9.655904    6.364888    3.192938    ( 0.0000,  0.0000,  0.0000)
  34 Cs     6.372649    6.396728    6.416734    ( 0.0000,  0.0000,  0.0000)
  35 Pb     9.570420    9.585004    9.578840    ( 0.0000,  0.0000,  0.0000)
  36 I      9.599749    9.585011    6.390724    ( 0.0000,  0.0000,  0.0000)
  37 I      6.390530    9.585007    9.583420    ( 0.0000,  0.0000,  0.0000)
  38 I      9.595311    6.391053    9.586136    ( 0.0000,  0.0000,  0.0000)

Unit cell:
           periodic     x           y           z      points  spacing
  1. axis:    yes   12.780000    0.000000    0.000000    75     0.1704
  2. axis:    yes    0.000000   12.780000    0.000000    75     0.1704
  3. axis:    yes    0.000000    0.000000   12.780000    75     0.1704

  Lengths:  12.780000  12.780000  12.780000
  Angles:   90.000000  90.000000  90.000000

Effective grid spacing dv^(1/3) = 0.1704

     iter     time        total  log10-change:
                         energy   eigst   dens
iter:   1 02:58:04  -113.019288
iter:   2 02:59:04  -112.503637   -1.41  -1.30
iter:   3 03:00:02  -110.365335   -2.03  -1.35
iter:   4 03:01:00  -109.994128   -2.02  -1.53
iter:   5 03:01:58  -109.954227   -3.14  -1.73
iter:   6 03:02:56  -109.942862c  -3.72  -1.99
iter:   7 03:03:55  -109.853904c  -3.64  -2.11
iter:   8 03:04:52  -109.860509c  -4.54  -2.50
iter:   9 03:05:50  -109.855397c  -4.90  -2.62
iter:  10 03:06:47  -109.860807c  -4.71  -2.70
iter:  11 03:07:44  -109.860701c  -5.42  -3.06
iter:  12 03:08:46  -109.860900c  -6.03  -3.21
iter:  13 03:09:44  -109.860910c  -5.99  -3.29
iter:  14 03:10:42  -109.860202c  -6.54  -3.40
iter:  15 03:11:39  -109.859876c  -6.81  -3.53
iter:  16 03:12:37  -109.860184c  -6.51  -3.58
iter:  17 03:13:38  -109.860677c  -6.86  -3.70
iter:  18 03:14:39  -109.860882c  -7.34  -3.90
iter:  19 03:15:39  -109.861048c  -7.49c -3.99
iter:  20 03:16:38  -109.861113c  -7.68c -4.06c

Converged after 20 iterations.

Dipole moment: (7.257220, 49.221744, 21.556115) |e|*Ang

Energy contributions relative to reference atoms: (reference = -10684034.619125)

Kinetic:       +204.082317
Potential:     -209.882854
External:        +0.000000
XC:            -103.112255
Entropy (-ST):   -0.217594
Local:           -0.839524
SIC:             +0.000000
--------------------------
Free energy:   -109.969910
Extrapolated:  -109.861113

Showing only first 2 kpts
 Kpt  Band  Eigenvalues  Occupancy
  0   170      1.11013    2.00000
  0   171      1.34411    2.00000
  0   172      3.72940    0.83340
  0   173      4.03162    0.06723

  1   170      1.10852    2.00000
  1   171      1.35651    2.00000
  1   172      3.72723    0.84398
  1   173      4.03362    0.06594


Fermi level: 3.69576

Gap: 2.371 eV
Transition (v -> c):
  (s=0, k=3, n=171, [0.25, 0.25, 0.25]) -> (s=0, k=1, n=172, [0.25, -0.25, 0.25])
Direct/indirect transitions are different
Direct gap: 2.371 eV
Transit
Forces in eV/Ang:
  0 Cs   -0.01880   -0.0406
Forces in eV/Ang:
  0 Cs   -0.00052   -0.00644    0.00640
  1 Pb    0.28309   -0.00004    1.46798
  2 I    -0.55016    0.00002   -2.28528
  3 I    -0.01639   -0.21481    0.05929
  4 Cs    0.00336   -0.01578    0.00950
  5 Pb   -0.03042   -0.00003   -0.15468
  6 I    -0.09210   -0.00000    0.77631
  7 I     0.01415    0.00000   -0.00496
  8 I     0.00451    0.00921    0.02728
  9 Cs   -0.00052    0.00644    0.00640
 10 Pb    0.02031    0.00003    0.00024
 11 I    -0.00009   -0.00001   -0.04034
 12 I    -0.00975   -0.00000   -0.00024
 13 I    -0.01638    0.21481    0.05931
 14 Cs    0.00336    0.01578    0.00950
 15 Pb    0.00441    0.00002    0.00271
 16 I    -0.00854    0.00000    0.03884
 17 I     0.00516   -0.00001   -0.00470
 18 I     0.00451   -0.00921    0.02726
 19 Cs    0.02008   -0.01852    0.01983
 20 Pb    0.16456   -0.00002   -0.00354
 21 I     0.02782    0.00000   -0.11623
 22 I     0.10717    0.00000   -0.06070
 23 I     0.04404   -0.10684   -0.00128
 24 Cs   -0.00446    0.00420   -0.01751
 25 Pb    0.00761   -0.00002    0.00035
 26 I     0.02577    0.00000    0.11750
 27 I    -0.03566    0.00000    0.04743
 28 I    -0.00129   -0.01480    0.00194
 29 Cs    0.02008    0.01852    0.01983
 30 Pb   -0.01829    0.00003   -0.00332
 31 I    -0.00601   -0.00000   -0.02188
 32 I     0.00894   -0.00000   -0.00532
 33 I     0.04404    0.10684   -0.00128
 34 Cs   -0.00446   -0.00420   -0.01751
 35 Pb   -0.00121    0.00002    0.00176
 36 I     0.00335   -0.00000    0.02434
 37 I    -0.00383   -0.00000    0.00479
 38 I    -0.00129    0.01480    0.00194

System changes: positions 

Initializing position-dependent things.

Density initialized from wave functions
         .---------------Cs-------------Cs 
        /|                              |  
       / |                    I         |  
      /  |                              |  
     /   |           Cs         I   Cs  |  
    /    |                              |  
   /     |     Pb      I      Pb      I |  
  /      |                              |  
 *       Cs  I          Cs  I           |  
 |       |                              |  
 | I     | Pb  I  I       Pb  I         |  
 |       |                              |  
 |   Cs  I          Cs                  |  
 |       |                              |  
 |       | I   Pb      I  I   Pb      I |  
 |       |                              |  
 |       .---I--------------I-----------.  
 |      /                              /   
 |     /   Pb  I   I      Pb          /    
 |    /                              /     
 |   /   I              I           /      
 |  /    I                         /       
 | /                      I       /        
 |/                              /         
 *------------------------------*          

Atomic positions and initial magnetic moments

Positions:
   0 Cs    -0.041137   -0.182421   -0.140898    ( 0.0000,  0.0000,  0.0000)
   1 Pb     3.283055    3.195000    3.219671    ( 0.0000,  0.0000,  0.0000)
   2 I      2.553672    3.195031    0.524655    ( 0.0000,  0.0000,  0.0000)
   3 I      3.123670    0.023400    3.177598    ( 0.0000,  0.0000,  0.0000)
   4 Cs     0.017663   -0.136002    6.544450    ( 0.0000,  0.0000,  0.0000)
   5 Pb     3.186919    3.194998    9.589723    ( 0.0000,  0.0000,  0.0000)
   6 I      3.134391    3.194968    6.385868    ( 0.0000,  0.0000,  0.0000)
   7 I      0.001371    3.194993    9.589504    ( 0.0000,  0.0000,  0.0000)
   8 I      3.184722    0.001496    9.613709    ( 0.0000,  0.0000,  0.0000)
   9 Cs    -0.041134    6.572427   -0.140902    ( 0.0000,  0.0000,  0.0000)
  10 Pb     3.187596    9.585008    3.195225    ( 0.0000,  0.0000,  0.0000)
  11 I      3.184095    9.584981    0.001972    ( 0.0000,  0.0000,  0.0000)
  12 I     -0.000712    9.585001    3.192636    ( 0.0000,  0.0000,  0.0000)
  13 I      3.123682    6.366611    3.177659    ( 0.0000,  0.0000,  0.0000)
  14 Cs     0.017664    6.526007    6.544452    ( 0.0000,  0.0000,  0.0000)
  15 Pb     3.208516    9.585006    9.589519    ( 0.0000,  0.0000,  0.0000)
  16 I      3.184737    9.585039    6.392187    ( 0.0000,  0.0000,  0.0000)
  17 I     -0.001539    9.585011    9.590131    ( 0.0000,  0.0000,  0.0000)
  18 I      3.184723    6.388511    9.613652    ( 0.0000,  0.0000,  0.0000)
  19 Cs     6.432708   -0.070252   -0.024438    ( 0.0000,  0.0000,  0.0000)
  20 Pb     9.505802    3.194998    3.199337    ( 0.0000,  0.0000,  0.0000)
  21 I      9.675933    3.194994    0.029097    ( 0.0000,  0.0000,  0.0000)
  22 I      6.391739    3.194988    3.155443    ( 0.0000,  0.0000,  0.0000)
  23 I      9.656214    0.023452    3.192920    ( 0.0000,  0.0000,  0.0000)
  24 Cs     6.372425   -0.006395    6.416364    ( 0.0000,  0.0000,  0.0000)
  25 Pb     9.592499    3.194997    9.594810    ( 0.0000,  0.0000,  0.0000)
  26 I      9.640218    3.194991    6.370957    ( 0.0000,  0.0000,  0.0000)
  27 I      6.388012    3.194993    9.637050    ( 0.0000,  0.0000,  0.0000)
  28 I      9.595245   -0.001280    9.586169    ( 0.0000,  0.0000,  0.0000)
  29 Cs     6.432703    6.460253   -0.024436    ( 0.0000,  0.0000,  0.0000)
  30 Pb     9.591755    9.585005    3.203651    ( 0.0000,  0.0000,  0.0000)
  31 I      9.590709    9.585003   -0.000452    ( 0.0000,  0.0000,  0.0000)
  32 I      6.390073    9.585016    3.194974    ( 0.0000,  0.0000,  0.0000)
  33 I      9.656206    6.366551    3.192926    ( 0.0000,  0.0000,  0.0000)
  34 Cs     6.372424    6.396396    6.416361    ( 0.0000,  0.0000,  0.0000)
  35 Pb     9.570470    9.585004    9.578730    ( 0.0000,  0.0000,  0.0000)
  36 I      9.599729    9.585011    6.391068    ( 0.0000,  0.0000,  0.0000)
  37 I      6.390494    9.585007    9.583499    ( 0.0000,  0.0000,  0.0000)
  38 I      9.595245    6.391281    9.586162    ( 0.0000,  0.0000,  0.0000)

Unit cell:
           periodic     x           y           z      points  spacing
  1. axis:    yes   12.780000    0.000000    0.000000    75     0.1704
  2. axis:    yes    0.000000   12.780000    0.000000    75     0.1704
  3. axis:    yes    0.000000    0.000000   12.780000    75     0.1704

  Lengths:  12.780000  12.780000  12.780000
  Angles:   90.000000  90.000000  90.000000

Effective grid spacing dv^(1/3) = 0.1704

     iter     time        total  log10-change:
                         energy   eigst   dens
iter:   1 04:10:48  -109.965534   -3.74
iter:   2 04:11:45  -109.962327   -5.04  -3.19
iter:   3 04:12:43  -109.953089c  -4.47  -3.29
iter:   4 04:13:44  -109.955717c  -6.00  -3.43
iter:   5 04:14:43  -109.955202c  -5.54  -3.69
iter:   6 04:15:41  -109.954922c  -5.90  -3.74
iter:   7 04:16:38  -109.955123c  -6.26  -3.97
iter:   8 04:17:35  -109.955048c  -7.02  -4.08c
iter:   9 04:18:32  -109.955050c  -7.66c -4.43c

Converged after 9 iterations.

Dipole moment: (7.439099, 49.813018, 20.905718) |e|*Ang

Energy contributions relative to reference atoms: (reference = -10684034.619125)

Kinetic:       +202.237231
Potential:     -208.234097
External:        +0.000000
XC:            -102.931640
Entropy (-ST):   -0.216105
Local:           -0.918491
SIC:             +0.000000
--------------------------
Free energy:   -110.063102
Extrapolated:  -109.955050

Showing only first 2 kpts
 Kpt  Band  Eigenvalues  Occupancy
  0   170      1.10775    2.00000
  0   171      1.32642    2.00000
  0   172      3.72407    0.83705
  0   173      4.02992    0.06538

  1   170      1.10833    2.00000
  1   171      1.34020    2.00000
  1   172      3.72177    0.84826
  1   173      4.03181    0.06420


Fermi level: 3.69119

Gap: 2.382 eV
Transition (v -> c):
  (s=0, k=3, n=171, [0.25, 0.25, 0.25]) -> (s=0, k=1, n=172, [0.25, -0.25, 0.25])
Direct/indirect transitions are different
Direct gap: 2.382 eV
Transition at: (s=0, k=3, n=171, [0.25, 0.25, 0.25])

Forces in eV/Ang:
  0 Cs    0.00305    0.00060    0.00591
  1 Pb    0.18986   -0.00003    1.08532
  2 I    -0.45027    0.00002   -1.87919
  3 I    -0.01373   -0.18453    0.06972
  4 Cs    0.00648   -0.01368    0.00977
  5 Pb   -0.04476   -0.00003   -0.10376
  6 I    -0.08781   -0.00000    0.70644
  7 I     0.01045    0.00000   -0.01232
  8 I     0.00239    0.00594    0.02049
  9 Cs    0.00305   -0.00060    0.00590
 10 Pb    0.01658    0.00003    0.00005
 11 I    -0.00107   -0.00001   -0.03719
 12 I    -0.00890   -0.00000   -0.00144
 13 I    -0.01372    0.18453    0.06973
 14 Cs    0.00648    0.01368    0.00977
 15 Pb   -0.00036    0.00003    0.00489
 16 I    -0.00922    0.00000    0.03638
 17 I     0.00511   -0.00000   -0.00375
 18 I     0.00239   -0.00595    0.02048
 19 Cs    0.02005   -0.01942    0.02100
 20 Pb    0.16249   -0.00002   -0.00676
 21 I     0.02730    0.00000   -0.10895
 22 I     0.09083    0.00000   -0.04561
 23 I     0.04252   -0.10084   -0.00195
 24 Cs   -0.00799    0.00816   -0.02008
 25 Pb    0.01446   -0.00002    0.00326
 26 I     0.02412    0.00000    0.10963
 27 I    -0.03143    0.00000    0.04004
 28 I     0.00012   -0.01444    0.00271
 29 Cs    0.02005    0.01942    0.02100
 30 Pb   -0.01365    0.00003   -0.00939
 31 I    -0.00567   -0.00000   -0.01982
 32 I     0.00850   -0.00000   -0.00647
 33 I     0.04251    0.10084   -0.00195
 34 Cs   -0.00799   -0.00816   -0.02008
 35 Pb    0.00306    0.00002    0.00715
 36 I     0.00412   -0.00000    0.02254
 37 I    -0.00349   -0.00000    0.00576
 38 I     0.00012    0.01444    0.00271

System changes: positions 

Initializing position-dependent things.

Density initialized from wave functions
         .---------------Cs-------------Cs 
        /|                              |  
       / |                    I         |  
      /  |                              |  
     /   |           Cs         I   Cs  |  
    /    |                              |  
   /     |     Pb      I      Pb      I |  
  /      |                              |  
 *       Cs  I          Cs  I           |  
 |       |                              |  
 | I     | Pb  I  I       Pb  I         |  
 |       |                              |  
 |   Cs  I          Cs                  |  
 |       |                              |  
 |       | I   Pb      I  I   Pb      I |  
 |       |                              |  
 |       .---I--------------I-----------.  
 |      /                              /   
 |     /   Pb  I   I      Pb          /    
 |    /                              /     
 |   /   I              I           /      
 |  /    I                         /       
 | /                      I       /        
 |/                              /         
 *------------------------------*          

Atomic positions and initial magnetic moments

Positions:
   0 Cs    -0.041989   -0.182575   -0.139977    ( 0.0000,  0.0000,  0.0000)
   1 Pb     3.288612    3.194999    3.249990    ( 0.0000,  0.0000,  0.0000)
   2 I      2.526736    3.195031    0.486954    ( 0.0000,  0.0000,  0.0000)
   3 I      3.123709    0.018344    3.178813    ( 0.0000,  0.0000,  0.0000)
   4 Cs     0.018024   -0.135343    6.543871    ( 0.0000,  0.0000,  0.0000)
   5 Pb     3.185787    3.194997    9.586853    ( 0.0000,  0.0000,  0.0000)
   6 I      3.132366    3.194968    6.404754    ( 0.0000,  0.0000,  0.0000)
   7 I      0.001662    3.194992    9.589898    ( 0.0000,  0.0000,  0.0000)
   8 I      3.184842    0.001669    9.614840    ( 0.0000,  0.0000,  0.0000)
   9 Cs    -0.041985    6.572580   -0.139981    ( 0.0000,  0.0000,  0.0000)
  10 Pb     3.188078    9.585009    3.195176    ( 0.0000,  0.0000,  0.0000)
  11 I      3.184127    9.584981    0.000974    ( 0.0000,  0.0000,  0.0000)
  12 I     -0.000971    9.585001    3.192607    ( 0.0000,  0.0000,  0.0000)
  13 I      3.123722    6.371667    3.178875    ( 0.0000,  0.0000,  0.0000)
  14 Cs     0.018025    6.525348    6.543872    ( 0.0000,  0.0000,  0.0000)
  15 Pb     3.208434    9.585007    9.589671    ( 0.0000,  0.0000,  0.0000)
  16 I      3.184548    9.585039    6.393139    ( 0.0000,  0.0000,  0.0000)
  17 I     -0.001421    9.585011    9.590007    ( 0.0000,  0.0000,  0.0000)
  18 I      3.184843    6.388338    9.614783    ( 0.0000,  0.0000,  0.0000)
  19 Cs     6.434159   -0.071537   -0.023749    ( 0.0000,  0.0000,  0.0000)
  20 Pb     9.510495    3.194997    3.199087    ( 0.0000,  0.0000,  0.0000)
  21 I      9.676164    3.194994    0.026051    ( 0.0000,  0.0000,  0.0000)
  22 I      6.394228    3.194988    3.153675    ( 0.0000,  0.0000,  0.0000)
  23 I      9.656957    0.020628    3.192876    ( 0.0000,  0.0000,  0.0000)
  24 Cs     6.372024   -0.005861    6.415688    ( 0.0000,  0.0000,  0.0000)
  25 Pb     9.592840    3.194996    9.594892    ( 0.0000,  0.0000,  0.0000)
  26 I      9.640557    3.194990    6.373967    ( 0.0000,  0.0000,  0.0000)
  27 I      6.387170    3.194993    9.638567    ( 0.0000,  0.0000,  0.0000)
  28 I      9.595192   -0.001679    9.586238    ( 0.0000,  0.0000,  0.0000)
  29 Cs     6.434154    6.461538   -0.023747    ( 0.0000,  0.0000,  0.0000)
  30 Pb     9.591353    9.585006    3.203553    ( 0.0000,  0.0000,  0.0000)
  31 I      9.590527    9.585003   -0.000975    ( 0.0000,  0.0000,  0.0000)
  32 I      6.390323    9.585016    3.194798    ( 0.0000,  0.0000,  0.0000)
  33 I      9.656949    6.369376    3.192882    ( 0.0000,  0.0000,  0.0000)
  34 Cs     6.372023    6.395862    6.415685    ( 0.0000,  0.0000,  0.0000)
  35 Pb     9.570628    9.585005    9.578756    ( 0.0000,  0.0000,  0.0000)
  36 I      9.599758    9.585011    6.391660    ( 0.0000,  0.0000,  0.0000)
  37 I      6.390425    9.585008    9.583664    ( 0.0000,  0.0000,  0.0000)
  38 I      9.595192    6.391680    9.586231    ( 0.0000,  0.0000,  0.0000)

Unit cell:
           periodic     x           y           z      points  spacing
  1. axis:    yes   12.780000    0.000000    0.000000    75     0.1704
  2. axis:    yes    0.000000   12.780000    0.000000    75     0.1704
  3. axis:    yes    0.000000    0.000000   12.780000    75     0.1704

  Lengths:  12.780000  12.780000  12.780000
  Angles:   90.000000  90.000000  90.000000

Effective grid spacing dv^(1/3) = 0.1704

     iter     time        total  log10-change:
                         energy   eigst   dens
iter:   1 05:05:54  -110.093476   -3.41
iter:   2 05:06:52  -110.086535   -4.71  -2.97
iter:   3 05:07:49  -110.068420c  -4.12  -3.07
iter:   4 05:08:50  -110.073519c  -5.55  -3.24
iter:   5 05:09:48  -110.071188c  -5.15  -3.47
iter:   6 05:10:46  -110.070769c  -5.55  -3.57
iter:   7 05:11:43  -110.071255c  -5.91  -3.79
iter:   8 05:12:41  -110.071037c  -6.63  -3.90
iter:   9 05:13:42  -110.071171c  -7.40  -4.27c
iter:  10 05:14:43  -110.071217c  -7.88c -4.38c

Converged after 10 iterations.

Dipole moment: (7.593050, 50.780397, 19.941610) |e|*Ang

Energy contributions relative to reference atoms: (reference = -10684034.619125)

Kinetic:       +200.153739
Potential:     -206.517328
External:        +0.000000
XC:            -102.684807
Entropy (-ST):   -0.212693
Local:           -0.916474
SIC:             +0.000000
--------------------------
Free energy:   -110.177564
Extrapolated:  -110.071217

Showing only first 2 kpts
 Kpt  Band  Eigenvalues  Occupancy
  0   170      1.10524    2.00000
  0   171      1.29917    2.00000
  0   172      3.71430    0.84590
  0   173      4.02853    0.06136

  1   170      1.10875    2.00000
  1   171      1.31536    2.00000
  1   172      3.71195    0.85741
  1   173      4.03017    0.06039


Fermi level: 3.68323

Gap: 2.397 eV
Transition (v -> c):
  (s=0, k=3, n=171, [0.25, 0.25, 0.25]) -> (s=0, k=1, n=172, [0.25, -0.25, 0.25])
Direct/indirect transitions are different
Direct gap: 2.397 eV
Transition at: (s=0, k=3, n=171, [0.25, 0.25, 0.25])

Forces in eV/Ang:
  0 Cs    0.00734    0.00707    0.00536
  1 Pb    0.05140   -0.00002    0.57319
  2 I    -0.30515    0.00001   -1.35367
  3 I    -0.01136   -0.14672    0.07222
  4 Cs    0.00393   -0.01716    0.01213
  5 Pb   -0.04824   -0.00002   -0.01548
  6 I    -0.08173   -0.00000    0.60964
  7 I     0.00079    0.00000   -0.02507
  8 I     0.00345    0.00106    0.01434
  9 Cs    0.00734   -0.00707    0.00536
 10 Pb    0.01475    0.00003    0.00323
 11 I    -0.00007   -0.00001   -0.03219
 12 I    -0.00747   -0.00000   -0.00017
 13 I    -0.01135    0.14671    0.07224
 14 Cs    0.00393    0.01716    0.01213
 15 Pb   -0.00040    0.00002    0.00390
 16 I    -0.00872    0.00000    0.03273
 17 I     0.00414   -0.00000   -0.00546
 18 I     0.00345   -0.00106    0.01432
 19 Cs    0.01807   -0.01826    0.01880
 20 Pb    0.16945   -0.00002   -0.00847
 21 I     0.02305    0.00000   -0.09479
 22 I     0.08040    0.00000   -0.03581
 23 I     0.04015   -0.08823   -0.00067
 24 Cs   -0.00508    0.00387   -0.01733
 25 Pb    0.01515   -0.00002    0.00346
 26 I     0.02219    0.00000    0.09494
 27 I    -0.02717    0.00000    0.03656
 28 I    -0.00059   -0.01418    0.00148
 29 Cs    0.01807    0.01826    0.01880
 30 Pb   -0.01041    0.00003   -0.00844
 31 I    -0.00700   -0.00000   -0.01811
 32 I     0.00762    0.00000   -0.00568
 33 I     0.04014    0.08823   -0.00067
 34 Cs   -0.00508   -0.00387   -0.01733
 35 Pb    0.00310    0.00002    0.00640
 36 I     0.00368   -0.00000    0.02066
 37 I    -0.00248   -0.00000    0.00484
 38 I    -0.00059    0.01418    0.00148

System changes: positions 

Initializing position-dependent things.

Density initialized from wave functions
         .---------------Cs-------------Cs 
        /|                              |  
       / |     I              I         |  
      /  |                              |  
     /   |           Cs         I   Cs  |  
    /    |                              |  
   /     |     Pb      I      Pb      I |  
  /      |                              |  
 *       Cs  I          Cs  I           |  
 |       |                              |  
 | I     | Pb  I  I       Pb  I         |  
 |       |                              |  
 |   Cs  I          Cs                  |  
 |       |                              |  
 |       | I   Pb      I  I   Pb      I |  
 |       |                              |  
 |       .---I--------------I-----------.  
 |      /                              /   
 |     /   Pb      I      Pb          /    
 |    /                              /     
 |   /   I              I           /      
 |  /    I                         /       
 | /                      I       /        
 |/                              /         
 *------------------------------*          

Atomic positions and initial magnetic moments

Positions:
   0 Cs    -0.042752   -0.182567   -0.138949    ( 0.0000,  0.0000,  0.0000)
   1 Pb     3.293296    3.194998    3.280615    ( 0.0000,  0.0000,  0.0000)
   2 I      2.496581    3.195031    0.440318    ( 0.0000,  0.0000,  0.0000)
   3 I      3.123688    0.011989    3.180928    ( 0.0000,  0.0000,  0.0000)
   4 Cs     0.018407   -0.134888    6.543426    ( 0.0000,  0.0000,  0.0000)
   5 Pb     3.184012    3.194996    9.585029    ( 0.0000,  0.0000,  0.0000)
   6 I      3.129402    3.194968    6.429886    ( 0.0000,  0.0000,  0.0000)
   7 I      0.001824    3.194992    9.589845    ( 0.0000,  0.0000,  0.0000)
   8 I      3.185026    0.001787    9.616105    ( 0.0000,  0.0000,  0.0000)
   9 Cs    -0.042748    6.572572   -0.138952    ( 0.0000,  0.0000,  0.0000)
  10 Pb     3.188721    9.585010    3.195211    ( 0.0000,  0.0000,  0.0000)
  11 I      3.184178    9.584981   -0.000348    ( 0.0000,  0.0000,  0.0000)
  12 I     -0.001303    9.585001    3.192597    ( 0.0000,  0.0000,  0.0000)
  13 I      3.123701    6.378022    3.180990    ( 0.0000,  0.0000,  0.0000)
  14 Cs     0.018408    6.524894    6.543427    ( 0.0000,  0.0000,  0.0000)
  15 Pb     3.208343    9.585008    9.589857    ( 0.0000,  0.0000,  0.0000)
  16 I      3.184261    9.585039    6.394442    ( 0.0000,  0.0000,  0.0000)
  17 I     -0.001267    9.585011    9.589785    ( 0.0000,  0.0000,  0.0000)
  18 I      3.185027    6.388219    9.616047    ( 0.0000,  0.0000,  0.0000)
  19 Cs     6.435871   -0.073088   -0.022851    ( 0.0000,  0.0000,  0.0000)
  20 Pb     9.517381    3.194996    3.198701    ( 0.0000,  0.0000,  0.0000)
  21 I      9.676580    3.194994    0.022036    ( 0.0000,  0.0000,  0.0000)
  22 I      6.397683    3.194988    3.151529    ( 0.0000,  0.0000,  0.0000)
  23 I      9.658139    0.016896    3.192843    ( 0.0000,  0.0000,  0.0000)
  24 Cs     6.371593   -0.005329    6.414833    ( 0.0000,  0.0000,  0.0000)
  25 Pb     9.593379    3.194995    9.595024    ( 0.0000,  0.0000,  0.0000)
  26 I      9.641124    3.194990    6.377935    ( 0.0000,  0.0000,  0.0000)
  27 I      6.386053    3.194993    9.640519    ( 0.0000,  0.0000,  0.0000)
  28 I      9.595115   -0.002250    9.586306    ( 0.0000,  0.0000,  0.0000)
  29 Cs     6.435866    6.463090   -0.022849    ( 0.0000,  0.0000,  0.0000)
  30 Pb     9.590867    9.585008    3.203376    ( 0.0000,  0.0000,  0.0000)
  31 I      9.590233    9.585003   -0.001696    ( 0.0000,  0.0000,  0.0000)
  32 I      6.390658    9.585016    3.194561    ( 0.0000,  0.0000,  0.0000)
  33 I      9.658131    6.373108    3.192849    ( 0.0000,  0.0000,  0.0000)
  34 Cs     6.371592    6.395329    6.414830    ( 0.0000,  0.0000,  0.0000)
  35 Pb     9.570830    9.585006    9.578837    ( 0.0000,  0.0000,  0.0000)
  36 I      9.599820    9.585011    6.392479    ( 0.0000,  0.0000,  0.0000)
  37 I      6.390342    9.585008    9.583876    ( 0.0000,  0.0000,  0.0000)
  38 I      9.595115    6.392251    9.586300    ( 0.0000,  0.0000,  0.0000)

Unit cell:
           periodic     x           y           z      points  spacing
  1. axis:    yes   12.780000    0.000000    0.000000    75     0.1704
  2. axis:    yes    0.000000   12.780000    0.000000    75     0.1704
  3. axis:    yes    0.000000    0.000000   12.780000    75     0.1704

  Lengths:  12.780000  12.780000  12.780000
  Angles:   90.000000  90.000000  90.000000

Effective grid spacing dv^(1/3) = 0.1704

     iter     time        total  log10-change:
                         energy   eigst   dens
iter:   1 06:01:14  -110.186515   -3.40
iter:   2 06:02:11  -110.179522   -4.66  -2.95
iter:   3 06:03:09  -110.160780c  -4.07  -3.05
iter:   4 06:04:09  -110.166078c  -5.53  -3.22
iter:   5 06:05:06  -110.163715c  -5.11  -3.45
iter:   6 06:06:03  -110.163486c  -5.55  -3.55
iter:   7 06:07:00  -110.163834c  -5.89  -3.78
iter:   8 06:07:57  -110.163656c  -6.59  -3.89
iter:   9 06:08:57  -110.163849c  -7.47c -4.27c

Converged after 9 iterations.

Dipole moment: (7.731378, 52.075252, 19.138782) |e|*Ang

Energy contributions relative to reference atoms: (reference = -10684034.619125)

Kinetic:       +198.244116
Potential:     -204.943488
External:        +0.000000
XC:            -102.445637
Entropy (-ST):   -0.208652
Local:           -0.914514
SIC:             +0.000000
--------------------------
Free energy:   -110.268174
Extrapolated:  -110.163849

Showing only first 2 kpts
 Kpt  Band  Eigenvalues  Occupancy
  0   170      1.10380    2.00000
  0   171      1.27197    2.00000
  0   172      3.70259    0.85661
  0   173      4.02713    0.05671

  1   170      1.10982    2.00000
  1   171      1.29121    2.00000
  1   172      3.70036    0.86755
  1   173      4.02844    0.05599


Fermi level: 3.67371

Gap: 2.409 eV
Transition (v -> c):
  (s=0, k=3, n=171, [0.25, 0.25, 0.25]) -> (s=0, k=1, n=172, [0.25, -0.25, 0.25])
Direct/indirect transitions are different
Direct gap: 2.409 eV
Transition at: (s=0, k=3, n=171, [0.25, 0.25, 0.25])

Forces in eV/Ang:
  0 Cs    0.01034    0.01354    0.00442
  1 Pb   -0.06534   -0.00002    0.16866
  2 I    -0.17404    0.00001   -0.89756
  3 I    -0.00874   -0.09765    0.07542
  4 Cs    0.00256   -0.01846    0.01424
  5 Pb   -0.05180   -0.00002    0.08406
  6 I    -0.07209   -0.00001    0.47110
  7 I    -0.01136    0.00000   -0.04003
  8 I     0.00422   -0.00413    0.00742
  9 Cs    0.01033   -0.01354    0.00442
 10 Pb    0.01226    0.00002    0.00624
 11 I     0.00094   -0.00001   -0.02560
 12 I    -0.00603   -0.00000    0.00050
 13 I    -0.00873    0.09764    0.07544
 14 Cs    0.00256    0.01846    0.01424
 15 Pb   -0.00106    0.00002    0.00377
 16 I    -0.00802    0.00001    0.02727
 17 I     0.00348   -0.00000   -0.00627
 18 I     0.00422    0.00413    0.00741
 19 Cs    0.01723   -0.01692    0.01701
 20 Pb    0.17214   -0.00001   -0.01047
 21 I     0.01918    0.00000   -0.07478
 22 I     0.06422    0.00000   -0.02274
 23 I     0.03737   -0.07003   -0.00003
 24 Cs   -0.00349    0.00219   -0.01552
 25 Pb    0.01563   -0.00002    0.00399
 26 I     0.01976    0.00000    0.07389
 27 I    -0.02202    0.00000    0.03245
 28 I    -0.00104   -0.01248    0.00107
 29 Cs    0.01723    0.01692    0.01701
 30 Pb   -0.00614    0.00002   -0.00938
 31 I    -0.00825   -0.00000   -0.01464
 32 I     0.00677    0.00000   -0.00533
 33 I     0.03737    0.07003   -0.00003
 34 Cs   -0.00349   -0.00219   -0.01552
 35 Pb    0.00363    0.00002    0.00778
 36 I     0.00317   -0.00000    0.01681
 37 I    -0.00177   -0.00000    0.00457
 38 I    -0.00103    0.01248    0.00107

System changes: positions 

Initializing position-dependent things.

Density initialized from wave functions
         .---------------Cs-------------Cs 
        /|                              |  
       / |     I              I         |  
      /  |                              |  
     /   |           Cs         I   Cs  |  
    /    |                              |  
   /     |     Pb      I      Pb      I |  
  /      |                              |  
 *       Cs  I          Cs  I           |  
 |       |                              |  
 | I     | Pb  I  I       Pb  I         |  
 |       |                              |  
 |   Cs  I          Cs                  |  
 |       |                              |  
 |       | I   Pb      I  I   Pb      I |  
 |       |                              |  
 |       .---I--------------I-----------.  
 |      /                              /   
 |     /   Pb      I      Pb          /    
 |    /                              /     
 |   /   I              I           /      
 |  /                              /       
 | /     I                I       /        
 |/                              /         
 *------------------------------*          

Atomic positions and initial magnetic moments

Positions:
   0 Cs    -0.043327   -0.182326   -0.137950    ( 0.0000,  0.0000,  0.0000)
   1 Pb     3.295313    3.194997    3.304170    ( 0.0000,  0.0000,  0.0000)
   2 I      2.468389    3.195031    0.395661    ( 0.0000,  0.0000,  0.0000)
   3 I      3.123653    0.005907    3.183693    ( 0.0000,  0.0000,  0.0000)
   4 Cs     0.018765   -0.134664    6.543178    ( 0.0000,  0.0000,  0.0000)
   5 Pb     3.181790    3.194995    9.585787    ( 0.0000,  0.0000,  0.0000)
   6 I      3.126063    3.194968    6.455740    ( 0.0000,  0.0000,  0.0000)
   7 I      0.001662    3.194992    9.589164    ( 0.0000,  0.0000,  0.0000)
   8 I      3.185255    0.001774    9.617255    ( 0.0000,  0.0000,  0.0000)
   9 Cs    -0.043323    6.572331   -0.137954    ( 0.0000,  0.0000,  0.0000)
  10 Pb     3.189399    9.585012    3.195356    ( 0.0000,  0.0000,  0.0000)
  11 I      3.184254    9.584981   -0.001721    ( 0.0000,  0.0000,  0.0000)
  12 I     -0.001649    9.585001    3.192605    ( 0.0000,  0.0000,  0.0000)
  13 I      3.123665    6.384103    3.183755    ( 0.0000,  0.0000,  0.0000)
  14 Cs     0.018766    6.524670    6.543179    ( 0.0000,  0.0000,  0.0000)
  15 Pb     3.208237    9.585009    9.590065    ( 0.0000,  0.0000,  0.0000)
  16 I      3.183927    9.585040    6.395832    ( 0.0000,  0.0000,  0.0000)
  17 I     -0.001103    9.585011    9.589499    ( 0.0000,  0.0000,  0.0000)
  18 I      3.185256    6.388232    9.617198    ( 0.0000,  0.0000,  0.0000)
  19 Cs     6.437638   -0.074697   -0.021878    ( 0.0000,  0.0000,  0.0000)
  20 Pb     9.525522    3.194995    3.198200    ( 0.0000,  0.0000,  0.0000)
  21 I      9.677077    3.194993    0.017899    ( 0.0000,  0.0000,  0.0000)
  22 I      6.401379    3.194988    3.149477    ( 0.0000,  0.0000,  0.0000)
  23 I      9.659557    0.013039    3.192824    ( 0.0000,  0.0000,  0.0000)
  24 Cs     6.371187   -0.004847    6.413916    ( 0.0000,  0.0000,  0.0000)
  25 Pb     9.594047    3.194994    9.595202    ( 0.0000,  0.0000,  0.0000)
  26 I      9.641800    3.194990    6.382002    ( 0.0000,  0.0000,  0.0000)
  27 I      6.384883    3.194993    9.642597    ( 0.0000,  0.0000,  0.0000)
  28 I      9.595023   -0.002876    9.586371    ( 0.0000,  0.0000,  0.0000)
  29 Cs     6.437633    6.464698   -0.021876    ( 0.0000,  0.0000,  0.0000)
  30 Pb     9.590425    9.585009    3.203110    ( 0.0000,  0.0000,  0.0000)
  31 I      9.589854    9.585003   -0.002454    ( 0.0000,  0.0000,  0.0000)
  32 I      6.391024    9.585016    3.194293    ( 0.0000,  0.0000,  0.0000)
  33 I      9.659549    6.376965    3.192830    ( 0.0000,  0.0000,  0.0000)
  34 Cs     6.371186    6.394847    6.413913    ( 0.0000,  0.0000,  0.0000)
  35 Pb     9.571063    9.585007    9.579005    ( 0.0000,  0.0000,  0.0000)
  36 I      9.599900    9.585012    6.393343    ( 0.0000,  0.0000,  0.0000)
  37 I      6.390260    9.585008    9.584114    ( 0.0000,  0.0000,  0.0000)
  38 I      9.595023    6.392877    9.586364    ( 0.0000,  0.0000,  0.0000)

Unit cell:
           periodic     x           y           z      points  spacing
  1. axis:    yes   12.780000    0.000000    0.000000    75     0.1704
  2. axis:    yes    0.000000   12.780000    0.000000    75     0.1704
  3. axis:    yes    0.000000    0.000000   12.780000    75     0.1704

  Lengths:  12.780000  12.780000  12.780000
  Angles:   90.000000  90.000000  90.000000

Effective grid spacing dv^(1/3) = 0.1704

     iter     time        total  log10-change:
                         energy   eigst   dens
iter:   1 06:52:08  -110.235751   -3.58
iter:   2 06:53:06  -110.230709   -4.82  -3.01
iter:   3 06:54:05  -110.216882c  -4.30  -3.11
iter:   4 06:55:02  -110.221172c  -5.72  -3.32
iter:   5 06:55:59  -110.219432c  -5.28  -3.53
iter:   6 06:56:56  -110.219298c  -5.80  -3.65
iter:   7 06:57:54  -110.219530c  -6.16  -3.89
iter:   8 06:58:55  -110.219433c  -6.78  -3.99
iter:   9 06:59:52  -110.219573c  -7.73c -4.37c

Converged after 9 iterations.

Dipole moment: (7.851152, 53.395382, 18.848819) |e|*Ang

Energy contributions relative to reference atoms: (reference = -10684034.619125)

Kinetic:       +196.881771
Potential:     -203.818391
External:        +0.000000
XC:            -102.263638
Entropy (-ST):   -0.204575
Local:           -0.917027
SIC:             +0.000000
--------------------------
Free energy:   -110.321860
Extrapolated:  -110.219573

Showing only first 2 kpts
 Kpt  Band  Eigenvalues  Occupancy
  0   170      1.10383    2.00000
  0   171      1.25133    2.00000
  0   172      3.69067    0.86769
  0   173      4.02603    0.05218

  1   170      1.11076    2.00000
  1   171      1.27367    2.00000
  1   172      3.68878    0.87698
  1   173      4.02699    0.05170


Fermi level: 3.66405

Gap: 2.415 eV
Transition (v -> c):
  (s=0, k=3, n=171, [0.25, 0.25, 0.25]) -> (s=0, k=1, n=172, [0.25, -0.25, 0.25])
Direct/indirect transitions are different
Direct gap: 2.415 eV
Transition at: (s=0, k=3, n=171, [0.25, 0.25, 0.25])

Forces in eV/Ang:
  0 Cs    0.01416    0.02012    0.00468
  1 Pb   -0.14111   -0.00001   -0.08121
  2 I    -0.08219    0.00000   -0.58964
  3 I    -0.00824   -0.05175    0.07162
  4 Cs   -0.00037   -0.02065    0.01523
  5 Pb   -0.05238   -0.00001    0.18050
  6 I    -0.06358   -0.00001    0.32919
  7 I    -0.02452    0.00000   -0.05004
  8 I     0.00506   -0.00981    0.00546
  9 Cs    0.01416   -0.02012    0.00468
 10 Pb    0.00910    0.00002    0.00677
 11 I     0.00176   -0.00001   -0.01691
 12 I    -0.00324   -0.00000    0.00104
 13 I    -0.00824    0.05174    0.07164
 14 Cs   -0.00037    0.02065    0.01523
 15 Pb   -0.00085    0.00001    0.00381
 16 I    -0.00723    0.00001    0.02076
 17 I     0.00236   -0.00000   -0.00731
 18 I     0.00506    0.00980    0.00544
 19 Cs    0.01478   -0.01400    0.01594
 20 Pb    0.17070   -0.00001   -0.01229
 21 I     0.01720    0.00000   -0.05379
 22 I     0.04753    0.00000   -0.01696
 23 I     0.03558   -0.05130    0.00049
 24 Cs    0.00021   -0.00126   -0.01314
 25 Pb    0.01408   -0.00001    0.00391
 26 I     0.01757   -0.00000    0.05231
 27 I    -0.01639    0.00000    0.03260
 28 I    -0.00160   -0.01102    0.00043
 29 Cs    0.01478    0.01400    0.01594
 30 Pb   -0.00197    0.00002   -0.00738
 31 I    -0.00939   -0.00000   -0.01122
 32 I     0.00494    0.00000   -0.00478
 33 I     0.03557    0.05130    0.00049
 34 Cs    0.00021    0.00126   -0.01314
 35 Pb    0.00326    0.00001    0.00613
 36 I     0.00249   -0.00000    0.01304
 37 I    -0.00062   -0.00000    0.00383
 38 I    -0.00160    0.01102    0.00043

System changes: positions 

Initializing position-dependent things.

Density initialized from wave functions
         .---------------Cs-------------Cs 
        /|                              |  
       / |     I              I         |  
      /  |                              |  
     /   |           Cs         I   Cs  |  
    /    |                              |  
   /     |     Pb      I      Pb      I |  
  /      |                              |  
 *       Cs  I          Cs  I           |  
 |       |                              |  
 | I     | Pb  I  I       Pb  I         |  
 |       |                              |  
 |   Cs  I          Cs                  |  
 |       |                              |  
 |       | I   Pb      I  I   Pb      I |  
 |       |                              |  
 |       .---I--------------I-----------.  
 |      /                              /   
 |     /   Pb      I      Pb          /    
 |    /                              /     
 |   /   I              I           /      
 |  /                              /       
 | /     I                I       /        
 |/                              /         
 *------------------------------*          

Atomic positions and initial magnetic moments

Positions:
   0 Cs    -0.043642   -0.181822   -0.137036    ( 0.0000,  0.0000,  0.0000)
   1 Pb     3.294360    3.194996    3.318267    ( 0.0000,  0.0000,  0.0000)
   2 I      2.444791    3.195031    0.358698    ( 0.0000,  0.0000,  0.0000)
   3 I      3.123597    0.001101    3.186658    ( 0.0000,  0.0000,  0.0000)
   4 Cs     0.019017   -0.134689    6.543114    ( 0.0000,  0.0000,  0.0000)
   5 Pb     3.179392    3.194994    9.589875    ( 0.0000,  0.0000,  0.0000)
   6 I      3.122762    3.194967    6.478298    ( 0.0000,  0.0000,  0.0000)
   7 I      0.001061    3.194992    9.587934    ( 0.0000,  0.0000,  0.0000)
   8 I      3.185516    0.001574    9.618252    ( 0.0000,  0.0000,  0.0000)
   9 Cs    -0.043639    6.571828   -0.137040    ( 0.0000,  0.0000,  0.0000)
  10 Pb     3.190007    9.585013    3.195560    ( 0.0000,  0.0000,  0.0000)
  11 I      3.184355    9.584981   -0.002891    ( 0.0000,  0.0000,  0.0000)
  12 I     -0.001927    9.585002    3.192634    ( 0.0000,  0.0000,  0.0000)
  13 I      3.123610    6.388909    3.186721    ( 0.0000,  0.0000,  0.0000)
  14 Cs     0.019019    6.524694    6.543115    ( 0.0000,  0.0000,  0.0000)
  15 Pb     3.208137    9.585010    9.590277    ( 0.0000,  0.0000,  0.0000)
  16 I      3.183590    9.585040    6.397090    ( 0.0000,  0.0000,  0.0000)
  17 I     -0.000961    9.585011    9.589164    ( 0.0000,  0.0000,  0.0000)
  18 I      3.185516    6.388432    9.618194    ( 0.0000,  0.0000,  0.0000)
  19 Cs     6.439265   -0.076176   -0.020925    ( 0.0000,  0.0000,  0.0000)
  20 Pb     9.534018    3.194994    3.197619    ( 0.0000,  0.0000,  0.0000)
  21 I      9.677590    3.194993    0.014269    ( 0.0000,  0.0000,  0.0000)
  22 I      6.404783    3.194988    3.147648    ( 0.0000,  0.0000,  0.0000)
  23 I      9.661047    0.009633    3.192825    ( 0.0000,  0.0000,  0.0000)
  24 Cs     6.370906   -0.004513    6.413058    ( 0.0000,  0.0000,  0.0000)
  25 Pb     9.594732    3.194993    9.595397    ( 0.0000,  0.0000,  0.0000)
  26 I      9.642488    3.194990    6.385544    ( 0.0000,  0.0000,  0.0000)
  27 I      6.383837    3.194993    9.644667    ( 0.0000,  0.0000,  0.0000)
  28 I      9.594916   -0.003482    9.586416    ( 0.0000,  0.0000,  0.0000)
  29 Cs     6.439260    6.466177   -0.020923    ( 0.0000,  0.0000,  0.0000)
  30 Pb     9.590108    9.585010    3.202847    ( 0.0000,  0.0000,  0.0000)
  31 I      9.589416    9.585003   -0.003138    ( 0.0000,  0.0000,  0.0000)
  32 I      6.391353    9.585016    3.194028    ( 0.0000,  0.0000,  0.0000)
  33 I      9.661038    6.380371    3.192831    ( 0.0000,  0.0000,  0.0000)
  34 Cs     6.370905    6.394514    6.413055    ( 0.0000,  0.0000,  0.0000)
  35 Pb     9.571290    9.585008    9.579179    ( 0.0000,  0.0000,  0.0000)
  36 I      9.599976    9.585012    6.394129    ( 0.0000,  0.0000,  0.0000)
  37 I      6.390207    9.585008    9.584340    ( 0.0000,  0.0000,  0.0000)
  38 I      9.594916    6.393483    9.586410    ( 0.0000,  0.0000,  0.0000)

Unit cell:
           periodic     x           y           z      points  spacing
  1. axis:    yes   12.780000    0.000000    0.000000    75     0.1704
  2. axis:    yes    0.000000   12.780000    0.000000    75     0.1704
  3. axis:    yes    0.000000    0.000000   12.780000    75     0.1704

  Lengths:  12.780000  12.780000  12.780000
  Angles:   90.000000  90.000000  90.000000

Effective grid spacing dv^(1/3) = 0.1704

     iter     time        total  log10-change:
                         energy   eigst   dens
iter:   1 07:38:36  -110.260319   -3.86
iter:   2 07:39:37  -110.257192   -5.09  -3.13
iter:   3 07:40:38  -110.248390c  -4.65  -3.22
iter:   4 07:41:36  -110.251430c  -6.03  -3.48
iter:   5 07:42:34  -110.250394c  -5.60  -3.66
iter:   6 07:43:32  -110.250189c  -6.15  -3.83
iter:   7 07:44:31  -110.250356c  -6.59  -4.06c
iter:   8 07:45:31  -110.250322c  -7.13  -4.16c
iter:   9 07:46:28  -110.250350c  -7.72c -4.52c

Converged after 9 iterations.

Dipole moment: (7.962768, 54.546653, 19.006921) |e|*Ang

Energy contributions relative to reference atoms: (reference = -10684034.619125)

Kinetic:       +195.962515
Potential:     -203.057868
External:        +0.000000
XC:            -102.134073
Entropy (-ST):   -0.201051
Local:           -0.920398
SIC:             +0.000000
--------------------------
Free energy:   -110.350875
Extrapolated:  -110.250350

Showing only first 2 kpts
 Kpt  Band  Eigenvalues  Occupancy
  0   170      1.10435    2.00000
  0   171      1.23710    2.00000
  0   172      3.67994    0.87770
  0   173      4.02508    0.04839

  1   170      1.11009    2.00000
  1   171      1.26217    2.00000
  1   172      3.67860    0.88430
  1   173      4.02575    0.04807


Fermi level: 3.65536

Gap: 2.416 eV
Transition (v -> c):
  (s=0, k=3, n=171, [0.25, 0.25, 0.25]) -> (s=0, k=1, n=172, [0.25, -0.25, 0.25])
Direct/indirect transitions are different
Direct gap: 2.416 eV
Transi
Forces in eV/Ang:
  0 Cs    0.01166    0.03129
Forces in eV/Ang:
  0 Cs    0.01589    0.02488    0.00478
  1 Pb   -0.17867   -0.00001   -0.20123
  2 I    -0.02506   -0.00000   -0.40097
  3 I    -0.00837   -0.01703    0.06814
  4 Cs   -0.00233   -0.02085    0.01561
  5 Pb   -0.05152   -0.00001    0.24560
  6 I    -0.05577   -0.00001    0.20564
  7 I    -0.03437    0.00000   -0.05805
  8 I     0.00550   -0.01242    0.00435
  9 Cs    0.01588   -0.02488    0.00478
 10 Pb    0.00617    0.00001    0.00850
 11 I     0.00228   -0.00001   -0.00837
 12 I    -0.00057   -0.00000    0.00191
 13 I    -0.00836    0.01703    0.06816
 14 Cs   -0.00233    0.02086    0.01561
 15 Pb   -0.00070    0.00001    0.00227
 16 I    -0.00653    0.00001    0.01416
 17 I     0.00132   -0.00000   -0.00848
 18 I     0.00549    0.01242    0.00434
 19 Cs    0.01382   -0.01111    0.01547
 20 Pb    0.16281   -0.00001   -0.01137
 21 I     0.01646    0.00000   -0.03368
 22 I     0.03631    0.00000   -0.01224
 23 I     0.03431   -0.03286    0.00125
 24 Cs    0.00287   -0.00231   -0.01168
 25 Pb    0.01167   -0.00001    0.00184
 26 I     0.01565   -0.00000    0.03165
 27 I    -0.01279    0.00000    0.03294
 28 I    -0.00189   -0.00878   -0.00046
 29 Cs    0.01382    0.01111    0.01547
 30 Pb    0.00150    0.00001   -0.00432
 31 I    -0.01012   -0.00000   -0.00762
 32 I     0.00321    0.00000   -0.00371
 33 I     0.03430    0.03286    0.00125
 34 Cs    0.00287    0.00231   -0.01168
 35 Pb    0.00298    0.00001    0.00347
 36 I     0.00190    0.00000    0.00906
 37 I     0.00042    0.00000    0.00263
 38 I    -0.00189    0.00878   -0.00046

System changes: positions 

Initializing position-dependent things.

Density initialized from wave functions
         .---------------Cs-------------Cs 
        /|                              |  
       / |     I              I         |  
      /  |                              |  
     /   |           Cs         I   Cs  |  
    /    |                              |  
   /     |     Pb      I      Pb      I |  
  /      |                              |  
 *       Cs  I          Cs  I           |  
 |       |                              |  
 |       | Pb  I  I       Pb  I   I     |  
 |       |                              |  
 |   Cs  I       I  Cs                  |  
 |       |                              |  
 |       | I   Pb      I  I   Pb      I |  
 |       |                              |  
 |       .---I--------------I-----------.  
 |      /                              /   
 |     /   Pb      I      Pb          /    
 |    /                              /     
 |   /                  I           /      
 |  /                              /       
 | /     I                I       /        
 |/                              /         
 *------------------------------*          

Atomic positions and initial magnetic moments

Positions:
   0 Cs    -0.043792   -0.180892   -0.135969    ( 0.0000,  0.0000,  0.0000)
   1 Pb     3.290239    3.194994    3.326866    ( 0.0000,  0.0000,  0.0000)
   2 I      2.419856    3.195031    0.320589    ( 0.0000,  0.0000,  0.0000)
   3 I      3.123504   -0.003396    3.190555    ( 0.0000,  0.0000,  0.0000)
   4 Cs     0.019220   -0.134942    6.543213    ( 0.0000,  0.0000,  0.0000)
   5 Pb     3.176229    3.194993    9.598719    ( 0.0000,  0.0000,  0.0000)
   6 I      3.118730    3.194967    6.502132    ( 0.0000,  0.0000,  0.0000)
   7 I     -0.000209    3.194992    9.585764    ( 0.0000,  0.0000,  0.0000)
   8 I      3.185876    0.001148    9.619351    ( 0.0000,  0.0000,  0.0000)
   9 Cs    -0.043789    6.570898   -0.135972    ( 0.0000,  0.0000,  0.0000)
  10 Pb     3.190668    9.585014    3.195918    ( 0.0000,  0.0000,  0.0000)
  11 I      3.184511    9.584981   -0.004057    ( 0.0000,  0.0000,  0.0000)
  12 I     -0.002179    9.585002    3.192709    ( 0.0000,  0.0000,  0.0000)
  13 I      3.123518    6.393406    3.190619    ( 0.0000,  0.0000,  0.0000)
  14 Cs     0.019221    6.524947    6.543214    ( 0.0000,  0.0000,  0.0000)
  15 Pb     3.208019    9.585011    9.590507    ( 0.0000,  0.0000,  0.0000)
  16 I      3.183173    9.585040    6.398459    ( 0.0000,  0.0000,  0.0000)
  17 I     -0.000817    9.585011    9.588675    ( 0.0000,  0.0000,  0.0000)
  18 I      3.185877    6.388858    9.619292    ( 0.0000,  0.0000,  0.0000)
  19 Cs     6.441189   -0.077877   -0.019742    ( 0.0000,  0.0000,  0.0000)
  20 Pb     9.544884    3.194994    3.196857    ( 0.0000,  0.0000,  0.0000)
  21 I      9.678256    3.194993    0.010446    ( 0.0000,  0.0000,  0.0000)
  22 I      6.408727    3.194988    3.145609    ( 0.0000,  0.0000,  0.0000)
  23 I      9.662982    0.006022    3.192860    ( 0.0000,  0.0000,  0.0000)
  24 Cs     6.370696   -0.004221    6.412044    ( 0.0000,  0.0000,  0.0000)
  25 Pb     9.595569    3.194992    9.595609    ( 0.0000,  0.0000,  0.0000)
  26 I      9.643343    3.194990    6.389231    ( 0.0000,  0.0000,  0.0000)
  27 I      6.382661    3.194993    9.647271    ( 0.0000,  0.0000,  0.0000)
  28 I      9.594765   -0.004187    9.586438    ( 0.0000,  0.0000,  0.0000)
  29 Cs     6.441184    6.467878   -0.019740    ( 0.0000,  0.0000,  0.0000)
  30 Pb     9.589867    9.585011    3.202574    ( 0.0000,  0.0000,  0.0000)
  31 I      9.588804    9.585003   -0.003879    ( 0.0000,  0.0000,  0.0000)
  32 I      6.391709    9.585016    3.193720    ( 0.0000,  0.0000,  0.0000)
  33 I      9.662972    6.383982    3.192866    ( 0.0000,  0.0000,  0.0000)
  34 Cs     6.370694    6.394221    6.412041    ( 0.0000,  0.0000,  0.0000)
  35 Pb     9.571568    9.585009    9.579356    ( 0.0000,  0.0000,  0.0000)
  36 I      9.600062    9.585012    6.394987    ( 0.0000,  0.0000,  0.0000)
  37 I      6.390180    9.585008    9.584589    ( 0.0000,  0.0000,  0.0000)
  38 I      9.594765    6.394188    9.586432    ( 0.0000,  0.0000,  0.0000)

Unit cell:
           periodic     x           y           z      points  spacing
  1. axis:    yes   12.780000    0.000000    0.000000    75     0.1704
  2. axis:    yes    0.000000   12.780000    0.000000    75     0.1704
  3. axis:    yes    0.000000    0.000000   12.780000    75     0.1704

  Lengths:  12.780000  12.780000  12.780000
  Angles:   90.000000  90.000000  90.000000

Effective grid spacing dv^(1/3) = 0.1704

     iter     time        total  log10-change:
                         energy   eigst   dens
iter:   1 08:21:29  -110.282907   -3.84
iter:   2 08:22:26  -110.279976   -5.07  -3.12
iter:   3 08:23:24  -110.271837c  -4.77  -3.22
iter:   4 08:24:26  -110.274799c  -6.09  -3.53
iter:   5 08:25:24  -110.273686c  -5.69  -3.65
iter:   6 08:26:24  -110.273426c  -6.26  -3.90
iter:   7 08:27:22  -110.273551c  -6.75  -4.12c
iter:   8 08:28:19  -110.273499c  -7.29  -4.23c
iter:   9 08:29:19  -110.273577c  -7.50c -4.55c

Converged after 9 iterations.

Dipole moment: (8.109596, 55.746417, 19.563478) |e|*Ang

Energy contributions relative to reference atoms: (reference = -10684034.619125)

Kinetic:       +195.111270
Potential:     -202.355028
External:        +0.000000
XC:            -102.010199
Entropy (-ST):   -0.196900
Local:           -0.921170
SIC:             +0.000000
--------------------------
Free energy:   -110.372026
Extrapolated:  -110.273577

Showing only first 2 kpts
 Kpt  Band  Eigenvalues  Occupancy
  0   170      1.10512    2.00000
  0   171      1.22431    2.00000
  0   172      3.66702    0.88989
  0   173      4.02410    0.04411

  1   170      1.10714    2.00000
  1   171      1.25220    2.00000
  1   172      3.66657    0.89208
  1   173      4.02453    0.04393


Fermi level: 3.64490

Gap: 2.414 eV
Transition (v -> c):
  (s=0, k=3, n=171, [0.25, 0.25, 0.25]
Forces in eV/Ang:
  0 Cs    0.01012    0.03215    0.01936
  1 Pb   -0.30018   -0.00000   -0.10945
  2 I    -0.22466    0.00001    0.04342
  3 I     0.05203    
Forces in eV/Ang:
  0 Cs    0.01651    0.02687    0.00302
  1 Pb   -0.19438   -0.00001   -0.26188
  2 I     0.02109   -0.00000   -0.25049
  3 I    -0.00852    0.01414    0.06435
  4 Cs   -0.00333   -0.02090    0.01694
  5 Pb   -0.04997   -0.00000    0.29834
  6 I    -0.04700   -0.00001    0.07425
  7 I    -0.04419   -0.00000   -0.06514
  8 I     0.00557   -0.01605    0.00486
  9 Cs    0.01650   -0.02686    0.00302
 10 Pb    0.00288    0.00000    0.00790
 11 I     0.00270   -0.00001   -0.00038
 12 I     0.00191    0.00000    0.00189
 13 I    -0.00851   -0.01415    0.06437
 14 Cs   -0.00332    0.02090    0.01694
 15 Pb   -0.00031    0.00001    0.00346
 16 I    -0.00583    0.00001    0.00820
 17 I     0.00039   -0.00000   -0.00856
 18 I     0.00557    0.01605    0.00485
 19 Cs    0.01372   -0.00998    0.01368
 20 Pb    0.14850   -0.00001   -0.01115
 21 I     0.01616    0.00000   -0.01570
 22 I     0.02031    0.00000   -0.00793
 23 I     0.03325   -0.01659    0.00112
 24 Cs    0.00427   -0.00328   -0.00955
 25 Pb    0.00827   -0.00001    0.00139
 26 I     0.01413   -0.00000    0.01283
 27 I    -0.00887    0.00000    0.03487
 28 I    -0.00197   -0.00698   -0.00042
 29 Cs    0.01372    0.00998    0.01368
 30 Pb    0.00556    0.00001   -0.00270
 31 I    -0.01070    0.00000   -0.00430
 32 I     0.00172    0.00000   -0.00347
 33 I     0.03325    0.01659    0.00113
 34 Cs    0.00427    0.00328   -0.00955
 35 Pb    0.00247    0.00000    0.00227
 36 I     0.00130    0.00000    0.00539
 37 I     0.00130    0.00000    0.00228
 38 I    -0.00197    0.00698   -0.00042

System changes: positions 

Initializing position-dependent things.

Density initialized from wave functions
         .---------------Cs-------------Cs 
        /|                              |  
       / |     I              I         |  
      /  |                              |  
     /   |           Cs         I   Cs  |  
    /    |                              |  
   /     |     Pb      I      Pb      I |  
  /      |                              |  
 *       Cs  I          Cs  I           |  
 |       |                              |  
 |       | Pb  I  I       Pb  I   I     |  
 |       |                              |  
 |   Cs  I       I  Cs                  |  
 |       |                              |  
 |       | I   Pb      I  I   Pb      I |  
 |       |                              |  
 |       .---I--------------I-----------.  
 |      /                              /   
 |     /   Pb      I      Pb          /    
 |    /                              /     
 |   /                  I           /      
 |  /                              /       
 | /     I                I       /        
 |/                              /         
 *------------------------------*          

Atomic positions and initial magnetic moments

Positions:
   0 Cs    -0.043724   -0.179200   -0.134550    ( 0.0000,  0.0000,  0.0000)
   1 Pb     3.280840    3.194993    3.329026    ( 0.0000,  0.0000,  0.0000)
   2 I      2.389125    3.195031    0.274974    ( 0.0000,  0.0000,  0.0000)
   3 I      3.123339   -0.007955    3.196486    ( 0.0000,  0.0000,  0.0000)
   4 Cs     0.019387   -0.135594    6.543615    ( 0.0000,  0.0000,  0.0000)
   5 Pb     3.171399    3.194992    9.616500    ( 0.0000,  0.0000,  0.0000)
   6 I      3.113006    3.194966    6.530551    ( 0.0000,  0.0000,  0.0000)
   7 I     -0.002796    3.194992    9.581748    ( 0.0000,  0.0000,  0.0000)
   8 I      3.186442    0.000255    9.620820    ( 0.0000,  0.0000,  0.0000)
   9 Cs    -0.043721    6.569206   -0.134554    ( 0.0000,  0.0000,  0.0000)
  10 Pb     3.191485    9.585015    3.196515    ( 0.0000,  0.0000,  0.0000)
  11 I      3.184777    9.584981   -0.005353    ( 0.0000,  0.0000,  0.0000)
  12 I     -0.002414    9.585002    3.192848    ( 0.0000,  0.0000,  0.0000)
  13 I      3.123353    6.397964    3.196551    ( 0.0000,  0.0000,  0.0000)
  14 Cs     0.019389    6.525600    6.543616    ( 0.0000,  0.0000,  0.0000)
  15 Pb     3.207859    9.585013    9.590869    ( 0.0000,  0.0000,  0.0000)
  16 I      3.182567    9.585041    6.400184    ( 0.0000,  0.0000,  0.0000)
  17 I     -0.000653    9.585011    9.587893    ( 0.0000,  0.0000,  0.0000)
  18 I      3.186442    6.389751    9.620761    ( 0.0000,  0.0000,  0.0000)
  19 Cs     6.443891   -0.080219   -0.018059    ( 0.0000,  0.0000,  0.0000)
  20 Pb     9.560916    3.194992    3.195679    ( 0.0000,  0.0000,  0.0000)
  21 I      9.679272    3.194993    0.005810    ( 0.0000,  0.0000,  0.0000)
  22 I      6.413909    3.194988    3.142940    ( 0.0000,  0.0000,  0.0000)
  23 I      9.665915    0.001599    3.192933    ( 0.0000,  0.0000,  0.0000)
  24 Cs     6.370548   -0.003957    6.410657    ( 0.0000,  0.0000,  0.0000)
  25 Pb     9.596732    3.194991    9.595912    ( 0.0000,  0.0000,  0.0000)
  26 I      9.644592    3.194990    6.393624    ( 0.0000,  0.0000,  0.0000)
  27 I      6.381131    3.194993    9.651163    ( 0.0000,  0.0000,  0.0000)
  28 I      9.594526   -0.005151    9.586448    ( 0.0000,  0.0000,  0.0000)
  29 Cs     6.443885    6.470221   -0.018057    ( 0.0000,  0.0000,  0.0000)
  30 Pb     9.589752    9.585013    3.202219    ( 0.0000,  0.0000,  0.0000)
  31 I      9.587821    9.585003   -0.004805    ( 0.0000,  0.0000,  0.0000)
  32 I      6.392159    9.585017    3.193279    ( 0.0000,  0.0000,  0.0000)
  33 I      9.665905    6.388405    3.192939    ( 0.0000,  0.0000,  0.0000)
  34 Cs     6.370546    6.393958    6.410654    ( 0.0000,  0.0000,  0.0000)
  35 Pb     9.571962    9.585010    9.579590    ( 0.0000,  0.0000,  0.0000)
  36 I      9.600172    9.585012    6.396072    ( 0.0000,  0.0000,  0.0000)
  37 I      6.390190    9.585008    9.584932    ( 0.0000,  0.0000,  0.0000)
  38 I      9.594526    6.395152    9.586442    ( 0.0000,  0.0000,  0.0000)

Unit cell:
           periodic     x           y           z      points  spacing
  1. axis:    yes   12.780000    0.000000    0.000000    75     0.1704
  2. axis:    yes    0.000000   12.780000    0.000000    75     0.1704
  3. axis:    yes    0.000000    0.000000   12.780000    75     0.1704

  Lengths:  12.780000  12.780000  12.780000
  Angles:   90.000000  90.000000  90.000000

Effective grid spacing dv^(1/3) = 0.1704

     iter     time        total  log10-change:
                         energy   eigst   dens
iter:   1 09:06:01  -110.304538   -3.54
iter:   2 09:06:58  -110.301477   -4.78  -3.07
iter:   3 09:07:57  -110.292835c  -4.69  -3.16
iter:   4 09:08:58  -110.295726c  -6.07  -3.49
iter:   5 09:09:57  -110.294842c  -5.70  -3.59
iter:   6 09:10:54  -110.294428c  -6.22  -3.88
iter:   7 09:11:51  -110.294490c  -6.70  -4.05c
iter:   8 09:12:49  -110.294406c  -7.30  -4.20c
iter:   9 09:13:51  -110.294475c  -7.48c -4.44c

Converged after 9 iterations.

Dipole moment: (8.343728, 57.199529, 20.827711) |e|*Ang

Energy contributions relative to reference atoms: (reference = -10684034.619125)

Kinetic:       +194.139092
Potential:     -201.552285
External:        +0.000000
XC:            -101.866235
Entropy (-ST):   -0.191740
Local:           -0.919177
SIC:             +0.000000
--------------------------
Free energy:   -110.390344
Extrapolated:  -110.294475

Showing only first 2 kpts
 Kpt  Band  Eigenvalues  Occupancy
  0   170      1.10647    2.00000
  0   171      1.21155    2.00000
  0   172      3.64977    0.90561
  0   173      4.02252    0.03903

  1   170      1.10100    2.00000
  1   171      1.24226    2.00000
  1   172      3.65081    0.90044
  1   173      4.02279    0.03893


Fermi level: 3.63084

Gap: 2.408 eV
Transition (v 
Forces in eV/Ang:
  0 Cs    0.00793    0.03114    0.01818
  1 Pb   -0.30818   -0.00001   -0.13921
  2 I    -0.07234    0.00001    0.08839
  3 I     0.04491    0.04424    0.00428
  4 Cs    0.00398   -0.0171
Forces in eV/Ang:
  0 Cs    0.01671    0.02720    0.00154
  1 Pb   -0.18988   -0.00000   -0.28842
  2 I     0.06745   -0.00001   -0.09576
  3 I    -0.00906    0.04914    0.05665
  4 Cs   -0.00342   -0.02014    0.01763
  5 Pb   -0.04310    0.00000    0.33705
  6 I    -0.03559   -0.00001   -0.08225
  7 I    -0.05461   -0.00000   -0.07208
  8 I     0.00590   -0.01998    0.00786
  9 Cs    0.01671   -0.02720    0.00154
 10 Pb   -0.00090   -0.00000    0.00639
 11 I     0.00344   -0.00001    0.01033
 12 I     0.00537    0.00000    0.00134
 13 I    -0.00905   -0.04914    0.05667
 14 Cs   -0.00342    0.02014    0.01763
 15 Pb    0.00134   -0.00000    0.00563
 16 I    -0.00452    0.00001    0.00046
 17 I    -0.00072   -0.00000   -0.00802
 18 I     0.00590    0.01998    0.00785
 19 Cs    0.01324   -0.00817    0.01238
 20 Pb    0.12101   -0.00000   -0.00878
 21 I     0.01624    0.00000    0.00622
 22 I    -0.00491   -0.00000   -0.00535
 23 I     0.03185    0.00263    0.00045
 24 Cs    0.00456   -0.00278   -0.00811
 25 Pb   -0.00055   -0.00000   -0.00010
 26 I     0.01170   -0.00000   -0.01010
 27 I    -0.00488    0.00000    0.03935
 28 I    -0.00243   -0.00482    0.00005
 29 Cs    0.01324    0.00817    0.01238
 30 Pb    0.01013   -0.00000   -0.00073
 31 I    -0.01153    0.00000    0.00015
 32 I    -0.00036    0.00000   -0.00351
 33 I     0.03184   -0.00263    0.00045
 34 Cs    0.00456    0.00278   -0.00811
 35 Pb    0.00062   -0.00000    0.00084
 36 I     0.00018    0.00000    0.00048
 37 I     0.00231    0.00000    0.00215
 38 I    -0.00243    0.00482    0.00005

System changes: positions 

Initializing position-dependent things.

Density initialized from wave functions
         .---------------Cs-------------Cs 
        /|                              |  
       / |     I              I         |  
      /  |                              |  
     /   |       I   Cs         I   Cs  |  
    /    |                              |  
   /     |     Pb      I      Pb      I |  
  /      |                              |  
 *       Cs  I          Cs  I           |  
 |       |                              |  
 |       | Pb  I  I       Pb  I   I     |  
 |       |                              |  
 |   Cs  |       I  Cs          I       |  
 |       |                              |  
 |       | I   Pb      I  I   Pb      I |  
 |       |                              |  
 |       .---I--------------I-----------.  
 |      /                              /   
 |     /   Pb      I      Pb          /    
 |    /                              /     
 |   /                              /      
 |  /                              /       
 | /     I                I       /        
 |/                              /         
 *------------------------------*          

Atomic positions and initial magnetic moments

Positions:
   0 Cs    -0.043262   -0.176512   -0.132818    ( 0.0000,  0.0000,  0.0000)
   1 Pb     3.264245    3.194992    3.319459    ( 0.0000,  0.0000,  0.0000)
   2 I      2.355234    3.195030    0.226594    ( 0.0000,  0.0000,  0.0000)
   3 I      3.123056   -0.011280    3.204709    ( 0.0000,  0.0000,  0.0000)
   4 Cs     0.019471   -0.136832    6.544493    ( 0.0000,  0.0000,  0.0000)
   5 Pb     3.164747    3.194991    9.646719    ( 0.0000,  0.0000,  0.0000)
   6 I      3.105575    3.194965    6.559419    ( 0.0000,  0.0000,  0.0000)
   7 I     -0.007313    3.194992    9.575168    ( 0.0000,  0.0000,  0.0000)
   8 I      3.187267   -0.001333    9.622713    ( 0.0000,  0.0000,  0.0000)
   9 Cs    -0.043260    6.566519   -0.132822    ( 0.0000,  0.0000,  0.0000)
  10 Pb     3.192369    9.585017    3.197391    ( 0.0000,  0.0000,  0.0000)
  11 I      3.185199    9.584980   -0.006463    ( 0.0000,  0.0000,  0.0000)
  12 I     -0.002519    9.585002    3.193057    ( 0.0000,  0.0000,  0.0000)
  13 I      3.123071    6.401289    3.204776    ( 0.0000,  0.0000,  0.0000)
  14 Cs     0.019472    6.526838    6.544494    ( 0.0000,  0.0000,  0.0000)
  15 Pb     3.207702    9.585014    9.591430    ( 0.0000,  0.0000,  0.0000)
  16 I      3.181774    9.585042    6.402087    ( 0.0000,  0.0000,  0.0000)
  17 I     -0.000497    9.585011    9.586762    ( 0.0000,  0.0000,  0.0000)
  18 I      3.187267    6.391338    9.622652    ( 0.0000,  0.0000,  0.0000)
  19 Cs     6.447395   -0.083179   -0.015828    ( 0.0000,  0.0000,  0.0000)
  20 Pb     9.582405    3.194991    3.194067    ( 0.0000,  0.0000,  0.0000)
  21 I      9.680722    3.194993    0.000950    ( 0.0000,  0.0000,  0.0000)
  22 I      6.419813    3.194988    3.139692    ( 0.0000,  0.0000,  0.0000)
  23 I      9.670022   -0.003133    3.193041    ( 0.0000,  0.0000,  0.0000)
  24 Cs     6.370528   -0.003772    6.408890    ( 0.0000,  0.0000,  0.0000)
  25 Pb     9.598047    3.194989    9.596282    ( 0.0000,  0.0000,  0.0000)
  26 I      9.646254    3.194989    6.398085    ( 0.0000,  0.0000,  0.0000)
  27 I      6.379318    3.194993    9.656642    ( 0.0000,  0.0000,  0.0000)
  28 I      9.594168   -0.006354    9.586446    ( 0.0000,  0.0000,  0.0000)
  29 Cs     6.447390    6.473181   -0.015826    ( 0.0000,  0.0000,  0.0000)
  30 Pb     9.589936    9.585014    3.201813    ( 0.0000,  0.0000,  0.0000)
  31 I      9.586362    9.585004   -0.005810    ( 0.0000,  0.0000,  0.0000)
  32 I      6.392653    9.585017    3.192684    ( 0.0000,  0.0000,  0.0000)
  33 I      9.670011    6.393136    3.193048    ( 0.0000,  0.0000,  0.0000)
  34 Cs     6.370526    6.393773    6.408886    ( 0.0000,  0.0000,  0.0000)
  35 Pb     9.572437    9.585011    9.579865    ( 0.0000,  0.0000,  0.0000)
  36 I      9.600285    9.585012    6.397270    ( 0.0000,  0.0000,  0.0000)
  37 I      6.390278    9.585008    9.585373    ( 0.0000,  0.0000,  0.0000)
  38 I      9.594168    6.396355    9.586440    ( 0.0000,  0.0000,  0.0000)

Unit cell:
           periodic     x           y           z      points  spacing
  1. axis:    yes   12.780000    0.000000    0.000000    75     0.1704
  2. axis:    yes    0.000000   12.780000    0.000000    75     0.1704
  3. axis:    yes    0.000000    0.000000   12.780000    75     0.1704

  Lengths:  12.780000  12.780000  12.780000
  Angles:   90.000000  90.000000  90.000000

Effective grid spacing dv^(1/3) = 0.1704

     iter     time        total  log10-change:
                         energy   eigst   dens
iter:   1 09:56:27  -110.322717   -3.30
iter:   2 09:57:26  -110.319815   -4.55  -3.05
iter:   3 09:58:24  -110.311252c  -4.76  -3.13
iter:   4 09:59:30  -110.313176c  -6.19  -3.43
iter:   5 10:00:29  -110.313307c  -5.74  -3.55
iter:   6 10:01:26  -110.312704c  -6.23  -3.77
iter:   7 10:02:25  -110.312656c  -6.59  -3.93
iter:   8 10:03:24  -110.312601c  -7.32  -4.15c
iter:   9 10:04:24  -110.312661c  -7.22  -4.29c
iter:  10 10:05:22  -110.312570c  -7.95c -4.60c

Converged after 10 iterations.

Dipole moment: (8.683099, 58.723917, 22.845005) |e|*Ang

Energy contributions relative to reference atoms: (reference = -10684034.619125)

Kinetic:       +193.151494
Potential:     -200.738308
External:        +0.000000
XC:            -101.710341
Entropy (-ST):   -0.185986
Local:           -0.922421
SIC:             +0.000000
--------------------------
Free energy:   -110.405563
Extrapolated:  -110.312570

Showing only first 2 kpts
 Kpt  Band  Eigenvalues  Occupancy
  0   170      1.10716    2.00000
  0   171      1.20000    2.00000
  0   172      3.62873    0.92381
  0   173      4.02004    0.03372

  1   170      1.09262    2.00000
  1   171      1.23165    2.00000
  1   172      3.63188   
Forces in eV/Ang:
  0 Cs    0.00414    0.02889    0.01391
  1 Pb   -0.23950   -0.00000   -0.14516
  2 I     0.04587    0.00001    0.11677
  3 I     0.03319    0.04818    0.00142
  4 Cs    0.00282   -0.01574    0.01479
  5 Pb   -0.00148    0.00000    0.05105
  6 I    -0.01762    0.00001   -0.00332
  
Forces in eV/Ang:
  0 Cs    0.01426    0.02567    0.00006
  1 Pb   -0.15883    0.00000   -0.24971
  2 I     0.09701   -0.00001    0.02196
  3 I    -0.01093    0.07394    0.04683
  4 Cs   -0.00295   -0.01682    0.01769
  5 Pb   -0.03214    0.00001    0.32348
  6 I    -0.02481   -0.00001   -0.21281
  7 I    -0.06060   -0.00000   -0.07881
  8 I     0.00601   -0.01880    0.01331
  9 Cs    0.01426   -0.02567    0.00006
 10 Pb   -0.00529   -0.00001    0.00686
 11 I     0.00362   -0.00001    0.02272
 12 I     0.00927    0.00000    0.00102
 13 I    -0.01092   -0.07394    0.04684
 14 Cs   -0.00295    0.01682    0.01769
 15 Pb    0.00282   -0.00001    0.00554
 16 I    -0.00324    0.00001   -0.00795
 17 I    -0.00202   -0.00000   -0.00742
 18 I     0.00601    0.01880    0.01330
 19 Cs    0.01486   -0.00536    0.01136
 20 Pb    0.07774    0.00000   -0.00222
 21 I     0.01768   -0.00000    0.03165
 22 I    -0.02236   -0.00000   -0.00598
 23 I     0.03127    0.02563    0.00026
 24 Cs    0.00434    0.00068   -0.00712
 25 Pb   -0.01186    0.00000   -0.00510
 26 I     0.00891   -0.00000   -0.03599
 27 I    -0.00460    0.00000    0.04633
 28 I    -0.00284   -0.00128   -0.00002
 29 Cs    0.01486    0.00537    0.01136
 30 Pb    0.01475   -0.00001    0.00313
 31 I    -0.01151    0.00000    0.00535
 32 I    -0.00248    0.00000   -0.00275
 33 I     0.03126   -0.02563    0.00026
 34 Cs    0.00434   -0.00068   -0.00713
 35 Pb   -0.00101   -0.00001   -0.00251
 36 I    -0.00093    0.00000   -0.00520
 37 I     0.00334    0.00000    0.00113
 38 I    -0.00284    0.00128   -0.00002

System changes: positions 

Initializing position-dependent things.

Density initialized from wave functions
         .---------------Cs-------------Cs 
        /|                              |  
       / |     I              I         |  
      /  |                              |  
     /   |       I   Cs         I   Cs  |  
    /    |                              |  
   /     |     Pb      I  I   Pb      I |  
  /      |                              |  
 *       Cs  I          Cs  I           |  
 |       |                              |  
 |       | Pb  I  I       Pb  I   I     |  
 |       |                              |  
 |   Cs  |       I  Cs          I       |  
 |       |                              |  
 |       | I   Pb      I  I   Pb      I |  
 |       |                              |  
 |       .---I--------------I-----------.  
 |      /                              /   
 |     /   Pb      I      Pb          /    
 |    /                              /     
 |   /                              /      
 |  /                              /       
 | /     I                        /        
 |/                              /         
 *------------------------------*          

Atomic positions and initial magnetic moments

Positions:
   0 Cs    -0.042351   -0.172935   -0.131031    ( 0.0000,  0.0000,  0.0000)
   1 Pb     3.241044    3.194990    3.295773    ( 0.0000,  0.0000,  0.0000)
   2 I      2.324684    3.195029    0.185235    ( 0.0000,  0.0000,  0.0000)
   3 I      3.122577   -0.011800    3.214473    ( 0.0000,  0.0000,  0.0000)
   4 Cs     0.019418   -0.138627    6.545918    ( 0.0000,  0.0000,  0.0000)
   5 Pb     3.156986    3.194991    9.688311    ( 0.0000,  0.0000,  0.0000)
   6 I      3.097316    3.194964    6.581121    ( 0.0000,  0.0000,  0.0000)
   7 I     -0.013812    3.194991    9.565993    ( 0.0000,  0.0000,  0.0000)
   8 I      3.188302   -0.003535    9.624941    ( 0.0000,  0.0000,  0.0000)
   9 Cs    -0.042349    6.562943   -0.131035    ( 0.0000,  0.0000,  0.0000)
  10 Pb     3.193088    9.585018    3.198543    ( 0.0000,  0.0000,  0.0000)
  11 I      3.185755    9.584980   -0.006836    ( 0.0000,  0.0000,  0.0000)
  12 I     -0.002335    9.585003    3.193327    ( 0.0000,  0.0000,  0.0000)
  13 I      3.122594    6.401809    3.214542    ( 0.0000,  0.0000,  0.0000)
  14 Cs     0.019419    6.528633    6.545919    ( 0.0000,  0.0000,  0.0000)
  15 Pb     3.207603    9.585016    9.592130    ( 0.0000,  0.0000,  0.0000)
  16 I      3.180883    9.585043    6.403714    ( 0.0000,  0.0000,  0.0000)
  17 I     -0.000410    9.585011    9.585356    ( 0.0000,  0.0000,  0.0000)
  18 I      3.188302    6.393540    9.624878    ( 0.0000,  0.0000,  0.0000)
  19 Cs     6.451391   -0.086350   -0.013259    ( 0.0000,  0.0000,  0.0000)
  20 Pb     9.606652    3.194990    3.192313    ( 0.0000,  0.0000,  0.0000)
  21 I      9.682586    3.194993   -0.002763    ( 0.0000,  0.0000,  0.0000)
  22 I      6.425336    3.194988    3.136248    ( 0.0000,  0.0000,  0.0000)
  23 I      9.675046   -0.006905    3.193187    ( 0.0000,  0.0000,  0.0000)
  24 Cs     6.370701   -0.003652    6.406936    ( 0.0000,  0.0000,  0.0000)
  25 Pb     9.599104    3.194988    9.596535    ( 0.0000,  0.0000,  0.0000)
  26 I      9.648151    3.194989    6.401252    ( 0.0000,  0.0000,  0.0000)
  27 I      6.377409    3.194993    9.663480    ( 0.0000,  0.0000,  0.0000)
  28 I      9.593703   -0.007586    9.586417    ( 0.0000,  0.0000,  0.0000)
  29 Cs     6.451385    6.476352   -0.013257    ( 0.0000,  0.0000,  0.0000)
  30 Pb     9.590607    9.585015    3.201504    ( 0.0000,  0.0000,  0.0000)
  31 I      9.584513    9.585004   -0.006627    ( 0.0000,  0.0000,  0.0000)
  32 I      6.393071    9.585017    3.192011    ( 0.0000,  0.0000,  0.0000)
  33 I      9.675034    6.396908    3.193194    ( 0.0000,  0.0000,  0.0000)
  34 Cs     6.370700    6.393653    6.406933    ( 0.0000,  0.0000,  0.0000)
  35 Pb     9.572909    9.585012    9.580064    ( 0.0000,  0.0000,  0.0000)
  36 I      9.600364    9.585013    6.398285    ( 0.0000,  0.0000,  0.0000)
  37 I      6.390478    9.585009    9.585837    ( 0.0000,  0.0000,  0.0000)
  38 I      9.593703    6.397586    9.586410    ( 0.0000,  0.0000,  0.0000)

Unit cell:
           periodic     x           y           z      points  spacing
  1. axis:    yes   12.780000    0.000000    0.000000    75     0.1704
  2. axis:    yes    0.000000   12.780000    0.000000    75     0.1704
  3. axis:    yes    0.000000    0.000000   12.780000    75     0.1704

  Lengths:  12.780000  12.780000  12.780000
  Angles:   90.000000  90.000000  90.000000

Effective grid spacing dv^(1/3) = 0.1704

     iter     time        total  log10-change:
                         energy   eigst   dens
iter:   1 10:48:11  -110.335988   -3.10
iter:   2 10:49:14  -110.333624   -4.38  -3.06
iter:   3 10:50:12  -110.325966c  -4.79  -3.13
iter:   4 10:51:10  -110.326896c  -6.13  -3.38
iter:   5 10:52:07  -110.327961c  -5.79  -3.45
iter:   6 10:53:05  -110.326899c  -5.93  -3.62
iter:   7 10:54:06  -110.327003c  -6.18  -3.78
iter:   8 10:55:04  -110.326949c  -7.57c -4.12c

Converged after 8 iterations.

Dipole moment: (9.119387, 59.902387, 24.915207) |e|*Ang

Energy contributions relative to reference atoms: (reference = -10684034.619125)

Kinetic:       +191.980878
Potential:     -199.768002
External:        +0.000000
XC:            -101.542589
Entropy (-ST):   -0.180440
Local:           -0.907016
SIC:             +0.000000
--------------------------
Free energy:   -110.417169
Extrapolated:  -110.326949

Showing only first 2 kpts
 Kpt  Band  Eigenvalues  Occupancy
  0   170      1.10430    2.00000
  0   171      1.19102    2.00000
  0   172      3.60632    0.94192
  0   173      4.01668    0.02897

  1   170      1.08681    2.00000
  1   171      1.21910    2.00000
  1   172      3.61193    0.
Forces in eV/Ang:
  0 Cs   -0.00099    0.02526    0.01020
  1 Pb   -0.14008   -0.00000   -0.12550
  2 I     0.10370    0.00001    0.12000
  3 I     0.01459    0.03749   -0.00312
  4 Cs    0.00093   -0.01458    0.01757
  5 Pb   -0.00096    0.00000    0.03776
  6 I    -0.03352    0.00001   -0.01546
Forces in eV/Ang:
  0 Cs    0.00939    0.02184   -0.00335
  1 Pb   -0.10288    0.00001   -0.17526
  2 I     0.11319   -0.00001    0.15270
  3 I    -0.01882    0.07490    0.02049
  4 Cs   -0.00515   -0.01384    0.01813
  5 Pb   -0.02367    0.00001    0.19880
  6 I    -0.01611   -0.00001   -0.29549
  7 I    -0.05345   -0.00000   -0.06854
  8 I    -0.00098   -0.01382    0.02829
  9 Cs    0.00939   -0.02183   -0.00335
 10 Pb   -0.01973   -0.00002   -0.00525
 11 I     0.00054   -0.00000    0.03147
 12 I     0.01126    0.00000   -0.00188
 13 I    -0.01881   -0.07490    0.02051
 14 Cs   -0.00515    0.01384    0.01813
 15 Pb   -0.00215   -0.00001    0.01960
 16 I    -0.00463    0.00001   -0.01351
 17 I    -0.00326    0.00000   -0.00432
 18 I    -0.00098    0.01382    0.02828
 19 Cs    0.01609   -0.00184    0.01124
 20 Pb    0.02573    0.00001   -0.00006
 21 I     0.02809   -0.00000    0.05124
 22 I    -0.03504   -0.00000   -0.01829
 23 I     0.03390    0.04667   -0.00387
 24 Cs    0.00678    0.00360   -0.00717
 25 Pb   -0.02370    0.00001    0.00336
 26 I     0.01055   -0.00000   -0.05946
 27 I    -0.00413   -0.00000    0.06083
 28 I     0.00201    0.00364    0.00395
 29 Cs    0.01609    0.00184    0.01124
 30 Pb    0.02673   -0.00002    0.00578
 31 I    -0.00930    0.00000    0.00991
 32 I    -0.00134    0.00000   -0.00457
 33 I     0.03389   -0.04667   -0.00387
 34 Cs    0.00678   -0.00360   -0.00717
 35 Pb    0.00277   -0.00001   -0.00404
 36 I     0.00095    0.00000   -0.01066
 37 I     0.00471    0.00000    0.00306
 38 I     0.00201   -0.00364    0.00395

System changes: positions 

Initializing position-dependent things.

Density initialized from wave functions
         .---------------Cs-------------Cs 
        /|                              |  
       / |     I              I         |  
      /  |                              |  
     /   |       I   Cs         I   Cs  |  
    /    |                              |  
   /     |     Pb      I  I   Pb      I |  
  /      |                              |  
 *       Cs  I          Cs  I           |  
 |       |                              |  
 |       | Pb  I  I       Pb  I   I     |  
 |       |                              |  
 |   Cs  |       I  Cs          I       |  
 |       |                              |  
 |       | I   Pb      I  I   Pb      I |  
 |       |                              |  
 |       .---I--------------I-----------.  
 |      /                              /   
 |     /   Pb      I      Pb          /    
 |    /                              /     
 |   /                              /      
 |  /                              /       
 | /     I                        /        
 |/                              /         
 *------------------------------*          

Atomic positions and initial magnetic moments

Positions:
   0 Cs    -0.041875   -0.171773   -0.130878    ( 0.0000,  0.0000,  0.0000)
   1 Pb     3.233241    3.194990    3.281281    ( 0.0000,  0.0000,  0.0000)
   2 I      2.325463    3.195029    0.189245    ( 0.0000,  0.0000,  0.0000)
   3 I      3.122172   -0.009204    3.216493    ( 0.0000,  0.0000,  0.0000)
   4 Cs     0.019233   -0.139329    6.546619    ( 0.0000,  0.0000,  0.0000)
   5 Pb     3.155234    3.194991    9.701349    ( 0.0000,  0.0000,  0.0000)
   6 I      3.095823    3.194964    6.575149    ( 0.0000,  0.0000,  0.0000)
   7 I     -0.016242    3.194991    9.562781    ( 0.0000,  0.0000,  0.0000)
   8 I      3.188471   -0.004285    9.625736    ( 0.0000,  0.0000,  0.0000)
   9 Cs    -0.041874    6.561781   -0.130882    ( 0.0000,  0.0000,  0.0000)
  10 Pb     3.192739    9.585017    3.198678    ( 0.0000,  0.0000,  0.0000)
  11 I      3.185880    9.584980   -0.006051    ( 0.0000,  0.0000,  0.0000)
  12 I     -0.002016    9.585003    3.193356    ( 0.0000,  0.0000,  0.0000)
  13 I      3.122190    6.399212    3.216563    ( 0.0000,  0.0000,  0.0000)
  14 Cs     0.019234    6.529335    6.546620    ( 0.0000,  0.0000,  0.0000)
  15 Pb     3.207552    9.585015    9.592617    ( 0.0000,  0.0000,  0.0000)
  16 I      3.180665    9.585043    6.403541    ( 0.0000,  0.0000,  0.0000)
  17 I     -0.000486    9.585011    9.585010    ( 0.0000,  0.0000,  0.0000)
  18 I      3.188472    6.394290    9.625673    ( 0.0000,  0.0000,  0.0000)
  19 Cs     6.452253   -0.086797   -0.012674    ( 0.0000,  0.0000,  0.0000)
  20 Pb     9.610977    3.194990    3.192003    ( 0.0000,  0.0000,  0.0000)
  21 I      9.683389    3.194993   -0.001775    ( 0.0000,  0.0000,  0.0000)
  22 I      6.425255    3.194988    3.135520    ( 0.0000,  0.0000,  0.0000)
  23 I      9.676502   -0.006070    3.193154    ( 0.0000,  0.0000,  0.0000)
  24 Cs     6.370956   -0.003672    6.406557    ( 0.0000,  0.0000,  0.0000)
  25 Pb     9.598783    3.194988    9.596639    ( 0.0000,  0.0000,  0.0000)
  26 I      9.648624    3.194989    6.399995    ( 0.0000,  0.0000,  0.0000)
  27 I      6.377149    3.194993    9.665719    ( 0.0000,  0.0000,  0.0000)
  28 I      9.593652   -0.007663    9.586469    ( 0.0000,  0.0000,  0.0000)
  29 Cs     6.452248    6.476799   -0.012673    ( 0.0000,  0.0000,  0.0000)
  30 Pb     9.591356    9.585015    3.201593    ( 0.0000,  0.0000,  0.0000)
  31 I      9.583993    9.585004   -0.006467    ( 0.0000,  0.0000,  0.0000)
  32 I      6.393070    9.585018    3.191827    ( 0.0000,  0.0000,  0.0000)
  33 I      9.676489    6.396073    3.193161    ( 0.0000,  0.0000,  0.0000)
  34 Cs     6.370955    6.393673    6.406553    ( 0.0000,  0.0000,  0.0000)
  35 Pb     9.573029    9.585012    9.580003    ( 0.0000,  0.0000,  0.0000)
  36 I      9.600382    9.585013    6.398133    ( 0.0000,  0.0000,  0.0000)
  37 I      6.390629    9.585009    9.585950    ( 0.0000,  0.0000,  0.0000)
  38 I      9.593653    6.397664    9.586462    ( 0.0000,  0.0000,  0.0000)

Unit cell:
           periodic     x           y           z      points  spacing
  1. axis:    yes   12.780000    0.000000    0.000000    75     0.1704
  2. axis:    yes    0.000000   12.780000    0.000000    75     0.1704
  3. axis:    yes    0.000000    0.000000   12.780000    75     0.1704

  Lengths:  12.780000  12.780000  12.780000
  Angles:   90.000000  90.000000  90.000000

Effective grid spacing dv^(1/3) = 0.1704

     iter     time        total  log10-change:
                         energy   eigst   dens
iter:   1 11:37:44  -110.336381   -4.00
iter:   2 11:38:44  -110.336270   -5.32  -3.59
iter:   3 11:39:48  -110.335973c  -5.45  -3.63
iter:   4 11:40:48  -110.335927c  -6.82  -3.83
iter:   5 11:41:49  -110.335742c  -6.75  -3.86
iter:   6 11:43:39  -110.335751c  -6.39  -4.06c
iter:   7 11:44:48  -110.335842c  -7.05  -4.18c
iter:   8 11:45:56  -110.335826c  -8.01c -4.60c

Converged after 8 iterations.

Dipole moment: (9.279191, 59.637214, 24.184045) |e|*Ang

Energy contributions relative to reference atoms: (reference = -10684034.619125)

Kinetic:       +191.879548
Potential:     -199.683466
External:        +0.000000
XC:            -101.512201
Entropy (-ST):   -0.180160
Local:           -0.929627
SIC:             +0.000000
--------------------------
Free energy:   -110.425906
Extrapolated:  -110.335826

Showing only first 2 kpts
 Kpt  Band  Eigenvalues  Occupancy
  0   170      1.09830    2.00000
  0   171      1.18754    2.00000
  0   172      3.60433    0.94438
  0   173      4.01626    0.02867

  1   170      1.08518    2.00000
  1   171      1.21191    2.00000
  1   172      3.61071    0.912
Forces in eV/Ang:
  0 Cs    0.00102    0.01846    0.00946
  1 Pb   -0.08397   -0.00000   -0.09684
  2 I     0.04279    0.00001    0.10263
  3 I     0.01801    0.02599   -0.00161
  4 Cs    0.00001   -0.01679    0.01774
  5 Pb    0.00846   -0.00000    0.02651
  6 I    -0.03395    0.00001   -0.02009
  7 I     0.00029    0.00001    0.00210
  8 I     0.00019   -0.00380    0.01778
  9 Cs    0.00102   -0.01846    0.00946
 10 Pb   -0.00199   -0.00000   -0.00165
 11 I     0.00222   -0.00001    0.01138
 12 I     0.02185   -0.00001   -0.00524
 13 I     0.01802   -0.02599   -0.00160
 14 Cs    0.00001    0.01679    0.01774
 15 Pb    0.00542    0.00000    0.00848
 16 I    -0.00194    0.00000   -0.00331
 17 I     0.00297   -0.00001   -0.00406
 18 I     0.00019    0.00380    0.01777
 19 Cs    0.01116   -0.00156    0.00448
 20 Pb    0.12511   -0.00000   -0.01103
 21 I    -0.06062    0.00001   -0.03153
 22 I    -0.19725    0.00001   -0.00824
 23 I     0.03192   -0.00288   -0.00150
 24 Cs    0.00409    0.00039   -0.00195
 25 Pb   -0.00167   -0.00000   -0.03754
 26 I 
Forces in eV/Ang:
  0 Cs   -0.00313   -0.02996   -0.01567
  1 Pb    0.05247    0.00001   -0.04929
  2 I    -0.17966    0.00000    0.09292
  3 I     0.03380   -0.00512    0.01841
  4 Cs    0.00451   -0.02565    0.03019
  5 Pb    0.02534    0.00000    0.01714
  6 I    -0.07129    0.00000   -0.06960
  7 I    -0.01144    0.00000   -0.00686
  8 I     0.00233   -0.01223    0.02715
  9 Cs   -0.00313    0.02996   -0.01567
 10 Pb   -0.00730   -0.00001   -0.00156
 11 I     0.00373   -0.00001    0.0
Forces in eV/Ang:
  0 Cs   -0.02259   -0.06425   -0.02153
  1 Pb    0.08621    0.00001    0.06062
  2 I    -0.08319   -0.00000   -0.08921
  3 I     0.03198   -0.01801    0.04318
  4 Cs    0.00510   -0.02380    0.03194
  5 Pb    0.00828    0.00001    0.03667
  6 I    -0.05440    0.00000   -0.12327
  7 I    -0.03190    0.00000   -0.02602
  8 I     0.00304   -0.01973    0.03734
  9 Cs   -0.02259    0.06426   -0.02153
 10 Pb   -0.01194   -0.00001   -0.00621
 11 I     0.00172   -0.00001    0.02481
 12 I     0.02296   -0.00000   -0.00325
 13 I     0.03199    0.01801    0.04319
 14 Cs    0.00510    0.02380    0.03194
 15 Pb    0.01162   -0.00001    0.01499
 16 I    -0.00363    0.00000    0.00090
 17 I    -0.00118   -0.00000   -0.00925
 18 I     0.00304    0.01973    0.03733
 19 Cs    0.02765   -0.00872    0.01564
 20 Pb   -0.01341    0.00000    0.00456
 21 I    -0.00841    0.00000   -0.00695
 22 I    -0.10908    0.00000   -0.04422
 23 I     0.04781    0.00115   -0.00001
 24 Cs    0.00178    0.00157   -0.00704
 25 Pb   -0.02302    0.00000   -0.03053
 26 I     0.02253    0.00000   -0.02523
 27 I    -0.00310    0.00000    0.02082
 28 I    -0.00203   -0.00401    0.00179
 29 Cs    0.02766    0.00872    0.01564
 30 Pb    0.02165   -0.00001    0.01208
 31 I    -0.01166   -0.00000    0.00152
 32 I     0.00346   -0.00000   -0.00622
 33 I     0.04780   -0.00115   -0.00001
 34 Cs    0.00178   -0.00157   -0.00704
 35 Pb   -0.00910   -0.00001   -0.00960
 36 I    -0.00171   -0.00000   -0.00129
 37 I     0.00230   -0.00000    0.00073
 38 I    -0.00202    0.00401    0.00179

System changes: positions 

Initializing position-dependent things.

Density initialized from wave functions
         .---------------Cs-------------Cs 
        /|                              |  
       / |     I              I         |  
      /  |                              |  
     /   |           Cs         I   Cs  |  
    /    |                              |  
   /     |     Pb      I  I   Pb      I |  
  /      |                              |  
 *       Cs  I          Cs  I           |  
 |       |                              |  
 |       | Pb  I  I       Pb  I   I     |  
 |       |                              |  
 |   Cs  I          Cs          I       |  
 |       |                              |  
 |       |I    Pb      I  I   Pb      I |  
 |       |                              |  
 |       .---I--------------I-----------.  
 |      /                              /   
 |     /   Pb      I      Pb          /    
 |    /                              /     
 |   /   I                          /      
 |  / I                            /       
 | /                              /        
 |/                              /         
 *------------------------------*          

Atomic positions and initial magnetic moments

Positions:
   0 Cs    -0.109010   -0.205431   -0.089156    ( 0.0000,  0.0000,  0.0000)
   1 Pb     3.249836    3.194986    3.245039    ( 0.0000,  0.0000,  0.0000)
   2 I      1.129266    3.195009    1.112339    ( 0.0000,  0.0000,  0.0000)
   3 I      3.202297    0.001536    3.188472    ( 0.0000,  0.0000,  0.0000)
   4 Cs     0.030429   -0.094409    6.507098    ( 0.0000,  0.0000,  0.0000)
   5 Pb     3.173047    3.194990    9.674016    ( 0.0000,  0.0000,  0.0000)
   6 I      3.070446    3.194966    6.594618    ( 0.0000,  0.0000,  0.0000)
   7 I     -0.004459    3.194984    9.602127    ( 0.0000,  0.0000,  0.0000)
   8 I      3.195303    0.002885    9.669562    ( 0.0000,  0.0000,  0.0000)
   9 Cs    -0.109007    6.595440   -0.089158    ( 0.0000,  0.0000,  0.0000)
  10 Pb     3.199190    9.585015    3.197920    ( 0.0000,  0.0000,  0.0000)
  11 I      3.195888    9.584994   -0.003094    ( 0.0000,  0.0000,  0.0000)
  12 I     -0.002996    9.585012    3.196756    ( 0.0000,  0.0000,  0.0000)
  13 I      3.202309    6.388469    3.188526    ( 0.0000,  0.0000,  0.0000)
  14 Cs     0.030430    6.484413    6.507098    ( 0.0000,  0.0000,  0.0000)
  15 Pb     3.200371    9.585016    9.596551    ( 0.0000,  0.0000,  0.0000)
  16 I      3.184805    9.585043    6.401205    ( 0.0000,  0.0000,  0.0000)
  17 I     -0.001452    9.585017    9.575586    ( 0.0000,  0.0000,  0.0000)
  18 I      3.195303    6.387120    9.669511    ( 0.0000,  0.0000,  0.0000)
  19 Cs     6.516826   -0.149252   -0.012092    ( 0.0000,  0.0000,  0.0000)
  20 Pb     9.677910    3.194990    3.175656    ( 0.0000,  0.0000,  0.0000)
  21 I      9.616409    3.194983   -0.006624    ( 0.0000,  0.0000,  0.0000)
  22 I      6.589138    3.194982    3.030791    ( 0.0000,  0.0000,  0.0000)
  23 I      9.652092   -0.000929    3.197123    ( 0.0000,  0.0000,  0.0000)
  24 Cs     6.364042   -0.004287    6.408752    ( 0.0000,  0.0000,  0.0000)
  25 Pb     9.605816    3.194988    9.612922    ( 0.0000,  0.0000,  0.0000)
  26 I      9.633165    3.194982    6.387397    ( 0.0000,  0.0000,  0.0000)
  27 I      6.378466    3.194985    9.681005    ( 0.0000,  0.0000,  0.0000)
  28 I      9.585525   -0.005907    9.583442    ( 0.0000,  0.0000,  0.0000)
  29 Cs     6.516821    6.539256   -0.012091    ( 0.0000,  0.0000,  0.0000)
  30 Pb     9.592056    9.585014    3.208065    ( 0.0000,  0.0000,  0.0000)
  31 I      9.572947    9.585010   -0.002780    ( 0.0000,  0.0000,  0.0000)
  32 I      6.398001    9.585022    3.188384    ( 0.0000,  0.0000,  0.0000)
  33 I      9.652081    6.390931    3.197128    ( 0.0000,  0.0000,  0.0000)
  34 Cs     6.364041    6.394286    6.408749    ( 0.0000,  0.0000,  0.0000)
  35 Pb     9.580378    9.585011    9.573881    ( 0.0000,  0.0000,  0.0000)
  36 I      9.594217    9.585019    6.394606    ( 0.0000,  0.0000,  0.0000)
  37 I      6.392147    9.585016    9.586882    ( 0.0000,  0.0000,  0.0000)
  38 I      9.585525    6.395907    9.583437    ( 0.0000,  0.0000,  0.0000)

Unit cell:
           periodic     x           y           z      points  spacing
  1. axis:    yes   12.780000    0.000000    0.000000    75     0.1704
  2. axis:    yes    0.000000   12.780000    0.000000    75     0.1704
  3. axis:    yes    0.000000    0.000000   12.780000    75     0.1704

  Lengths:  12.780000  12.780000  12.780000
  Angles:   90.000000  90.000000  90.000000

Effective grid spacing dv^(1/3) = 0.1704

     iter     time        total  log10-change:
                         energy   eigst   dens
iter:   1 11:59:18  -110.126700   -4.44
iter:   2 12:00:15  -110.126932   -5.78  -3.63
iter:   3 12:01:09  -110.128200c  -5.48  -3.70
iter:   4 12:02:20  -110.127762c  -7.08  -3.93
iter:   5 12:03:25  -110.127454c  -6.87  -4.03c
+0.000000
--------------------------
Free energy:   -110.305463
Extrapolated:  -110.209738

Showing only first 2 kpts
 Kpt  Band  Eigenvalues  Occupancy
  0   170      1.09734    2.00000
  0   171      1.22251    2.00000
  0   172      3.62699    0.95804
  0   173      4.01217    0.03831

  1   170      1.09213    2.00000
  1   171      1.24342    2.00000
  1   172      3.64908    0.84873
  1   173      4.01032    0.03902


Fermi level: 3.61859

Gap: 2.384 eV
Transition (v -> c):
  (s=0, k=3, n=171, [0.25, 0.25, 0.25]) -> (s=0, k=0, n=172, [0.25, -0.25, -0.25])
Direct/indirect transitions are different
Direct gap: 2.404 eV
Transition at: (s=0, k=0, n=171, [0.25, -0.25, -0.25])
