39
Lattice="12.78 0.0 0.0 0.0 12.78 0.0 0.0 0.0 12.865625999999999" Properties=species:S:1:pos:R:3:spacegroup_kinds:I:1:forces:R:3:energies:R:1 spacegroup="P m -3 m" unit_cell=conventional energy=-110.80676596786782 stress="0.0005962679912138514 4.39616650666008e-18 -6.624526794594266e-18 4.39616650666008e-18 0.0005962679912138454 -7.005476676607686e-19 -6.624526794594266e-18 -7.005476676607686e-19 0.002986008378190508" free_energy=-110.80676596786782 pbc="T T T"
Cs      -0.15813566      -0.15813566       0.00000000        0      -0.00827681      -0.00827681      -0.00000000      -3.48538624
Pb       3.19500000       3.19500000       3.33783148        1      -0.00000000       0.00000000       0.00711879      -4.16524685
I        0.03074149       3.19500000       3.13525800        2       0.00656222      -0.00000000       0.00068000      -2.08003284
I        3.19500000       0.03074149       3.13525800        2       0.00000000       0.00656222       0.00068000      -2.08003284
Cs      -0.04986344      -0.04986344       6.43281300        0       0.00551329       0.00551329      -0.00000000      -3.48375160
Pb       3.19500000       3.19500000       9.52779452        1      -0.00000000      -0.00000000      -0.00711879      -4.16524685
I        3.19500000       3.19500000       6.43281300        2       0.00000000       0.00000000       0.00000000      -2.12258903
I        0.03074149       3.19500000       9.73036800        2       0.00656222      -0.00000000      -0.00068000      -2.08003284
I        3.19500000       0.03074149       9.73036800        2      -0.00000000       0.00656222      -0.00068000      -2.08003284
Cs      -0.15813566       6.54813566      -0.00000000        0      -0.00827681       0.00827681       0.00000000      -3.48538624
Pb       3.19500000       9.58500000       3.20751681        1      -0.00000000      -0.00000000      -0.00457898      -4.44996848
I        3.19500000       9.58500000      -0.00000000        2      -0.00000000       0.00000000      -0.00000000      -2.05914839
I       -0.00321900       9.58500000       3.17986365        2       0.01612867      -0.00000000       0.00902167      -2.08165598
I        3.19500000       6.35925851       3.13525800        2      -0.00000000      -0.00656222       0.00068000      -2.08003284
Cs      -0.04986344       6.43986344       6.43281300        0       0.00551329      -0.00551329      -0.00000000      -3.48375160
Pb       3.19500000       9.58500000       9.65810919        1      -0.00000000      -0.00000000       0.00457898      -4.44996848
I        3.19500000       9.58500000       6.43281300        2       0.00000000      -0.00000000      -0.00000000      -2.08918755
I       -0.00321900       9.58500000       9.68576235        2       0.01612867      -0.00000000      -0.00902167      -2.08165598
I        3.19500000       6.35925851       9.73036800        2      -0.00000000      -0.00656222      -0.00068000      -2.08003284
Cs       6.54813566      -0.15813566      -0.00000000        0       0.00827681      -0.00827681       0.00000000      -3.48538624
Pb       9.58500000       3.19500000       3.20751681        1      -0.00000000       0.00000000      -0.00457898      -4.44996848
I        9.58500000       3.19500000      -0.00000000        2      -0.00000000      -0.00000000       0.00000000      -2.05914839
I        6.35925851       3.19500000       3.13525800        2      -0.00656222      -0.00000000       0.00068000      -2.08003284
I        9.58500000      -0.00321900       3.17986365        2      -0.00000000       0.01612867       0.00902167      -2.08165598
Cs       6.43986344      -0.04986344       6.43281300        0      -0.00551329       0.00551329      -0.00000000      -3.48375160
Pb       9.58500000       3.19500000       9.65810919        1      -0.00000000       0.00000000       0.00457898      -4.44996848
I        9.58500000       3.19500000       6.43281300        2      -0.00000000       0.00000000      -0.00000000      -2.08918755
I        6.35925851       3.19500000       9.73036800        2      -0.00656222       0.00000000      -0.00068000      -2.08003284
I        9.58500000      -0.00321900       9.68576235        2      -0.00000000       0.01612867      -0.00902167      -2.08165598
Cs       6.54813566       6.54813566       0.00000000        0       0.00827681       0.00827681       0.00000000      -3.48538624
Pb       9.58500000       9.58500000       3.22565108        1      -0.00000000      -0.00000000       0.00044517      -4.43969357
I        9.58500000       9.58500000       0.00000000        2       0.00000000       0.00000000       0.00000000      -2.11139248
I        6.39321900       9.58500000       3.17986365        2      -0.01612867      -0.00000000       0.00902167      -2.08165598
I        9.58500000       6.39321900       3.17986365        2      -0.00000000      -0.01612867       0.00902167      -2.08165598
Cs       6.43986344       6.43986344       6.43281300        0      -0.00551329      -0.00551329      -0.00000000      -3.48375160
Pb       9.58500000       9.58500000       9.63997492        1      -0.00000000      -0.00000000      -0.00044517      -4.43969357
I        9.58500000       9.58500000       6.43281300        2      -0.00000000      -0.00000000       0.00000000      -2.09629590
I        6.39321900       9.58500000       9.68576235        2      -0.01612867      -0.00000000      -0.00902167      -2.08165598
I        9.58500000       6.39321900       9.68576235        2      -0.00000000      -0.01612867      -0.00902167      -2.08165598
