39
Lattice="12.78 0.0 0.0 0.0 12.78 0.0 0.0 0.0 12.949974000000001" Properties=species:S:1:pos:R:3:spacegroup_kinds:I:1:forces:R:3:energies:R:1 spacegroup="P m -3 m" unit_cell=conventional energy=-110.75810081801137 stress="0.0008944828705826298 -5.54160723797771e-18 6.879130861965845e-19 -5.54160723797771e-18 0.0008944828705826271 1.574468627731409e-18 6.879130861965845e-19 1.574468627731409e-18 0.004156243687392252" free_energy=-110.75810081801137 pbc="T T T"
Cs      -0.16338415      -0.16338415      -0.00000000        0      -0.00866569      -0.00866569       0.00000000      -3.47701146
Pb       3.19500000       3.19500000       3.37585725        1       0.00000000       0.00000000       0.00962030      -4.16349499
I        0.03069685       3.19500000       3.15778733        2       0.00745416      -0.00000000       0.00170746      -2.07835585
I        3.19500000       0.03069685       3.15778733        2       0.00000000       0.00745416       0.00170746      -2.07835585
Cs      -0.05147552      -0.05147552       6.47498700        0       0.00564366       0.00564366      -0.00000000      -3.47501024
Pb       3.19500000       3.19500000       9.57411675        1       0.00000000       0.00000000      -0.00962030      -4.16349499
I        3.19500000       3.19500000       6.47498700        2      -0.00000000       0.00000000       0.00000000      -2.12907141
I        0.03069685       3.19500000       9.79218667        2       0.00745416      -0.00000000      -0.00170746      -2.07835585
I        3.19500000       0.03069685       9.79218667        2      -0.00000000       0.00745416      -0.00170746      -2.07835585
Cs      -0.16338415       6.55338415      -0.00000000        0      -0.00866569       0.00866569      -0.00000000      -3.47701146
Pb       3.19500000       9.58500000       3.22830185        1       0.00000000      -0.00000000      -0.00415631      -4.44689799
I        3.19500000       9.58500000      -0.00000000        2       0.00000000       0.00000000       0.00000000      -2.06615859
I       -0.00249970       9.58500000       3.20003740        2       0.01078214      -0.00000000       0.00872711      -2.08294425
I        3.19500000       6.35930315       3.15778733        2       0.00000000      -0.00745416       0.00170746      -2.07835585
Cs      -0.05147552       6.44147552       6.47498700        0       0.00564366      -0.00564366       0.00000000      -3.47501024
Pb       3.19500000       9.58500000       9.72167215        1      -0.00000000      -0.00000000       0.00415631      -4.44689799
I        3.19500000       9.58500000       6.47498700        2      -0.00000000       0.00000000      -0.00000000      -2.09471695
I       -0.00249970       9.58500000       9.74993660        2       0.01078214      -0.00000000      -0.00872711      -2.08294425
I        3.19500000       6.35930315       9.79218667        2      -0.00000000      -0.00745416      -0.00170746      -2.07835585
Cs       6.55338415      -0.16338415      -0.00000000        0       0.00866569      -0.00866569      -0.00000000      -3.47701146
Pb       9.58500000       3.19500000       3.22830185        1       0.00000000      -0.00000000      -0.00415631      -4.44689799
I        9.58500000       3.19500000      -0.00000000        2      -0.00000000      -0.00000000       0.00000000      -2.06615859
I        6.35930315       3.19500000       3.15778733        2      -0.00745416       0.00000000       0.00170746      -2.07835585
I        9.58500000      -0.00249970       3.20003740        2      -0.00000000       0.01078214       0.00872711      -2.08294425
Cs       6.44147552      -0.05147552       6.47498700        0      -0.00564366       0.00564366      -0.00000000      -3.47501024
Pb       9.58500000       3.19500000       9.72167215        1       0.00000000      -0.00000000       0.00415631      -4.44689799
I        9.58500000       3.19500000       6.47498700        2       0.00000000      -0.00000000      -0.00000000      -2.09471695
I        6.35930315       3.19500000       9.79218667        2      -0.00745416      -0.00000000      -0.00170746      -2.07835585
I        9.58500000      -0.00249970       9.74993660        2      -0.00000000       0.01078214      -0.00872711      -2.08294425
Cs       6.55338415       6.55338415      -0.00000000        0       0.00866569       0.00866569      -0.00000000      -3.47701146
Pb       9.58500000       9.58500000       3.24810963        1      -0.00000000      -0.00000000       0.00050781      -4.43378626
I        9.58500000       9.58500000      -0.00000000        2      -0.00000000      -0.00000000       0.00000000      -2.12137072
I        6.39249970       9.58500000       3.20003740        2      -0.01078214      -0.00000000       0.00872711      -2.08294425
I        9.58500000       6.39249970       3.20003740        2      -0.00000000      -0.01078214       0.00872711      -2.08294425
Cs       6.44147552       6.44147552       6.47498700        0      -0.00564366      -0.00564366       0.00000000      -3.47501024
Pb       9.58500000       9.58500000       9.70186437        1      -0.00000000      -0.00000000      -0.00050781      -4.43378626
I        9.58500000       9.58500000       6.47498700        2       0.00000000      -0.00000000      -0.00000000      -2.10526555
I        6.39249970       9.58500000       9.74993660        2      -0.01078214      -0.00000000      -0.00872711      -2.08294425
I        9.58500000       6.39249970       9.74993660        2      -0.00000000      -0.01078214      -0.00872711      -2.08294425
