
  ___ ___ ___ _ _ _  
 |   |   |_  | | | | 
 | | | | | . | | | | 
 |__ |  _|___|_____|  25.7.0
 |___|_|             

User:   buyer@DESKTOP-3EQA59H
Date:   Fri Jul 17 19:40:46 2026
Arch:   x86_64
Pid:    31768
CWD:    /mnt/c/Users/Buyer/dft-si
Python: 3.11.15
gpaw:   /home/buyer/miniconda3/envs/dft/lib/python3.11/site-packages/gpaw
_gpaw:  /home/buyer/miniconda3/envs/dft/lib/python3.11/site-packages/
        _gpaw.cpython-311-x86_64-linux-gnu.so
ase:    /home/buyer/miniconda3/envs/dft/lib/python3.11/site-packages/ase (version 3.29.0)
numpy:  /home/buyer/miniconda3/envs/dft/lib/python3.11/site-packages/numpy (version 2.4.6)
scipy:  /home/buyer/miniconda3/envs/dft/lib/python3.11/site-packages/scipy (version 1.17.1)
libxc:  7.0.0
units:  Angstrom and eV
cores: 1
OpenMP: True
OMP_NUM_THREADS: 1

Input parameters:
  kpts: [2 2 2]
  mode: {ecut: 600.0,
         name: pw}
  xc: PBE

System changes: positions, numbers, cell, pbc, initial_charges, initial_magmoms 

Initialize ...

species:
  Cs:
    name: Caesium
    id: fa822afd343f47335d508b9ee4f394c3
    Z: 55.0
    valence: 9
    core: 46
    charge: 0.0
    file: /home/buyer/miniconda3/envs/dft/lib/python3.11/site-packages/gpaw_data/setups/Cs.PBE.gz
    compensation charges: {type: gauss,
                           rc: 0.33,
                           lmax: 2}
    cutoffs: {filter: 2.06,
              core: 2.51}
    projectors:
      #              energy  rcut
      - 5s(2.00)   -26.706   1.164
      - 6s(1.00)    -2.085   1.164
      - 5p(6.00)   -13.523   1.058
      -  p          13.688   1.058
      -  d           0.000   1.058
  
    # Using partial waves for Cs as LCAO basis

  Pb:
    name: Lead
    id: 66e73b13d76dc837202bcdb13fee58e6
    Z: 82.0
    valence: 14
    core: 68
    charge: 0.0
    file: /home/buyer/miniconda3/envs/dft/lib/python3.11/site-packages/gpaw_data/setups/Pb.PBE.gz
    compensation charges: {type: gauss,
                           rc: 0.38,
                           lmax: 2}
    cutoffs: {filter: 2.36,
              core: 2.43}
    projectors:
      #              energy  rcut
      - 6s(2.00)   -11.969   1.259
      - 6p(2.00)    -3.506   1.275
      - 5d(10.00)   -21.211   1.217
      -  s          15.243   1.259
      -  p          23.705   1.275
      -  d           6.001   1.217
  
    # Using partial waves for Pb as LCAO basis

  I:
    name: Iodine
    id: 91405a398e4dfe788ff04f57531604ec
    Z: 53.0
    valence: 7
    core: 46
    charge: 0.0
    file: /home/buyer/miniconda3/envs/dft/lib/python3.11/site-packages/gpaw_data/setups/I.PBE.gz
    compensation charges: {type: gauss,
                           rc: 0.37,
                           lmax: 2}
    cutoffs: {filter: 2.06,
              core: 2.90}
    projectors:
      #              energy  rcut
      - 5s(2.00)   -17.382   1.164
      - 5p(5.00)    -7.088   1.164
      -  s           9.829   1.164
      -  p          20.123   1.164
      -  d           0.000   1.164
  
    # Using partial waves for I as LCAO basis

Reference energy: -10684034.619125  # eV

Spin-paired calculation

Convergence criteria:
 Maximum [total energy] change in last 3 cyles: 0.0005 eV / valence electron
 Maximum integral of absolute [dens]ity change: 0.0001 electrons / valence electron
 Maximum integral of absolute [eigenst]ate change: 4e-08 eV^2 / valence electron
 Maximum number of scf [iter]ations: 333
 (Square brackets indicate name in SCF output, whereas a 'c' in
 the SCF output indicates the quantity has converged.)

Symmetries present (total): 4

  ( 1  0  0)  ( 1  0  0)  ( 0  1  0)  ( 0  1  0)
  ( 0  1  0)  ( 0  1  0)  ( 1  0  0)  ( 1  0  0)
  ( 0  0  1)  ( 0  0 -1)  ( 0  0  1)  ( 0  0 -1)

8 k-points: 2 x 2 x 2 Monkhorst-Pack grid
2 k-points in the irreducible part of the Brillouin zone
       k-points in crystal coordinates                weights
   0:     0.25000000   -0.25000000    0.25000000          4/8
   1:     0.25000000    0.25000000    0.25000000          4/8

Wave functions: Plane wave expansion
  Cutoff energy: 600.000 eV
  Number of coefficients (min, max): 70618, 70618
  Pulay-stress correction: 0.000000 eV/Ang^3 (de/decut=0.000000)
  Using FFTW library
  ScaLapack parameters: grid=1x1, blocksize=None
  Wavefunction extrapolation:
    Improved wavefunction reuse through dual PAW basis 

Occupation numbers: Fermi-Dirac:
  width: 0.1000  # eV
 

Eigensolver
   Davidson(niter=2) 

Densities:
  Coarse grid: 75*75*75 grid
  Fine grid: 150*150*150 grid
  Total Charge: 0.000000 

Density mixing:
  Method: separate
  Backend: pulay
  Linear mixing parameter: 0.05
  old densities: 5
  Damping of long wavelength oscillations: 50 

Hamiltonian:
  XC and Coulomb potentials evaluated on a 150*150*150 grid
  Using the PBE Exchange-Correlation functional
  External potential:
    NoExternalPotential
 

XC parameters: PBE with 2 nearest neighbor stencil

Memory estimate:
  Process memory now: 5052.94 MiB
  Calculator: 1006.14 MiB
    Density: 228.59 MiB
      Arrays: 83.68 MiB
      Localized functions: 112.72 MiB
      Mixer: 32.19 MiB
    Hamiltonian: 57.76 MiB
      Arrays: 54.72 MiB
      XC: 0.00 MiB
      Poisson: 0.00 MiB
      vbar: 3.05 MiB
    Wavefunctions: 719.79 MiB
      Arrays psit_nG: 439.64 MiB
      Eigensolver: 231.56 MiB
      Projections: 3.41 MiB
      Projectors: 26.94 MiB
      PW-descriptor: 18.25 MiB

Total number of cores used: 1

Number of atoms: 39
Number of atomic orbitals: 204
Number of bands in calculation: 204
Number of valence electrons: 345
Bands to converge: occupied

... initialized

Initializing position-dependent things.

Density initialized from atomic densities
Creating initial wave functions:
  204 bands from LCAO basis set

         .------------------------------Cs 
        /|                              |  
       / |     I              I         |  
      /  |                              |  
     /   |           Cs         I       |  
    /    |                              |  
   /     |     Pb      I  I   Pb      I |  
  /      |                              |  
 *       |   I           Cs I           Cs 
 |       |                              |  
 | I     | Pb  I  I       Pb  I         |  
 |       |                              |  
 |       I           Cs         I   Cs  |  
 |       |                              |  
 |       | I   Pb      I  I   Pb      I |  
 |       |                              |  
 |       .---I-----------Cs-I-----------.  
 |      /                              /   
 | I   /   Pb     I       Pb          /    
 |    /                              /     
 |   /   I                          /s     
 |  /                              /       
 | /                              /        
 |/                              /         
 *------------------------------*          

Atomic positions and initial magnetic moments

Positions:
   0 Cs    -0.163384   -0.163384   -0.000000    ( 0.0000,  0.0000,  0.0000)
   1 Pb     3.195000    3.195000    3.375857    ( 0.0000,  0.0000,  0.0000)
   2 I      0.030697    3.195000    3.157787    ( 0.0000,  0.0000,  0.0000)
   3 I      3.195000    0.030697    3.157787    ( 0.0000,  0.0000,  0.0000)
   4 Cs    -0.051476   -0.051476    6.474987    ( 0.0000,  0.0000,  0.0000)
   5 Pb     3.195000    3.195000    9.574117    ( 0.0000,  0.0000,  0.0000)
   6 I      3.195000    3.195000    6.474987    ( 0.0000,  0.0000,  0.0000)
   7 I      0.030697    3.195000    9.792187    ( 0.0000,  0.0000,  0.0000)
   8 I      3.195000    0.030697    9.792187    ( 0.0000,  0.0000,  0.0000)
   9 Cs    -0.163384    6.553384   -0.000000    ( 0.0000,  0.0000,  0.0000)
  10 Pb     3.195000    9.585000    3.228302    ( 0.0000,  0.0000,  0.0000)
  11 I      3.195000    9.585000   -0.000000    ( 0.0000,  0.0000,  0.0000)
  12 I     -0.002500    9.585000    3.200037    ( 0.0000,  0.0000,  0.0000)
  13 I      3.195000    6.359303    3.157787    ( 0.0000,  0.0000,  0.0000)
  14 Cs    -0.051476    6.441476    6.474987    ( 0.0000,  0.0000,  0.0000)
  15 Pb     3.195000    9.585000    9.721672    ( 0.0000,  0.0000,  0.0000)
  16 I      3.195000    9.585000    6.474987    ( 0.0000,  0.0000,  0.0000)
  17 I     -0.002500    9.585000    9.749937    ( 0.0000,  0.0000,  0.0000)
  18 I      3.195000    6.359303    9.792187    ( 0.0000,  0.0000,  0.0000)
  19 Cs     6.553384   -0.163384   -0.000000    ( 0.0000,  0.0000,  0.0000)
  20 Pb     9.585000    3.195000    3.228302    ( 0.0000,  0.0000,  0.0000)
  21 I      9.585000    3.195000   -0.000000    ( 0.0000,  0.0000,  0.0000)
  22 I      6.359303    3.195000    3.157787    ( 0.0000,  0.0000,  0.0000)
  23 I      9.585000   -0.002500    3.200037    ( 0.0000,  0.0000,  0.0000)
  24 Cs     6.441476   -0.051476    6.474987    ( 0.0000,  0.0000,  0.0000)
  25 Pb     9.585000    3.195000    9.721672    ( 0.0000,  0.0000,  0.0000)
  26 I      9.585000    3.195000    6.474987    ( 0.0000,  0.0000,  0.0000)
  27 I      6.359303    3.195000    9.792187    ( 0.0000,  0.0000,  0.0000)
  28 I      9.585000   -0.002500    9.749937    ( 0.0000,  0.0000,  0.0000)
  29 Cs     6.553384    6.553384   -0.000000    ( 0.0000,  0.0000,  0.0000)
  30 Pb     9.585000    9.585000    3.248110    ( 0.0000,  0.0000,  0.0000)
  31 I      9.585000    9.585000   -0.000000    ( 0.0000,  0.0000,  0.0000)
  32 I      6.392500    9.585000    3.200037    ( 0.0000,  0.0000,  0.0000)
  33 I      9.585000    6.392500    3.200037    ( 0.0000,  0.0000,  0.0000)
  34 Cs     6.441476    6.441476    6.474987    ( 0.0000,  0.0000,  0.0000)
  35 Pb     9.585000    9.585000    9.701864    ( 0.0000,  0.0000,  0.0000)
  36 I      9.585000    9.585000    6.474987    ( 0.0000,  0.0000,  0.0000)
  37 I      6.392500    9.585000    9.749937    ( 0.0000,  0.0000,  0.0000)
  38 I      9.585000    6.392500    9.749937    ( 0.0000,  0.0000,  0.0000)

Unit cell:
           periodic     x           y           z      points  spacing
  1. axis:    yes   12.780000    0.000000    0.000000    75     0.1704
  2. axis:    yes    0.000000   12.780000    0.000000    75     0.1704
  3. axis:    yes    0.000000    0.000000   12.949974    75     0.1727

  Lengths:  12.780000  12.780000  12.949974
  Angles:   90.000000  90.000000  90.000000

Effective grid spacing dv^(1/3) = 0.1712

     iter     time        total  log10-change:
                         energy   eigst   dens
iter:   1 19:41:53  -113.568083
iter:   2 19:42:24  -113.019165   -1.42  -1.29
iter:   3 19:42:52  -110.771937   -2.02  -1.34
iter:   4 19:43:20  -110.408431   -1.99  -1.53
iter:   5 19:43:48  -110.344357   -2.96  -1.72
iter:   6 19:44:17  -110.310559c  -3.61  -2.09
iter:   7 19:44:44  -110.247660c  -3.72  -2.29
iter:   8 19:45:12  -110.251238c  -4.72  -2.46
iter:   9 19:45:41  -110.248601c  -4.74  -2.63
iter:  10 19:46:08  -110.256035c  -4.80  -2.81
iter:  11 19:46:35  -110.253894c  -5.94  -3.18
iter:  12 19:47:05  -110.253742c  -6.51  -3.25
iter:  13 19:47:33  -110.254434c  -5.72  -3.28
iter:  14 19:48:00  -110.253987c  -6.62  -3.47
iter:  15 19:48:33  -110.253717c  -5.86  -3.52
iter:  16 19:48:59  -110.253757c  -6.89  -3.73
iter:  17 19:49:27  -110.253802c  -7.31  -3.81
iter:  18 19:49:54  -110.253803c  -8.05c -3.82
iter:  19 19:50:22  -110.253836c  -6.83  -3.85
iter:  20 19:50:49  -110.253857c  -7.81c -4.51c

Converged after 20 iterations.

Dipole moment: (54.080038, 54.080038, 0.000000) |e|*Ang

Energy contributions relative to reference atoms: (reference = -10684034.619125)

Kinetic:       +187.492247
Potential:     -196.102792
External:        +0.000000
XC:            -100.627767
Entropy (-ST):   -0.206488
Local:           -0.912300
SIC:             +0.000000
--------------------------
Free energy:   -110.357101
Extrapolated:  -110.253857

Showing all kpts
 Kpt  Band  Eigenvalues  Occupancy
  0   170      0.96126    2.00000
  0   171      1.08951    2.00000
  0   172      3.58194    0.86756
  0   173      3.91278    0.05451

  1   170      0.96126    2.00000
  1   171      1.08951    2.00000
  1   172      3.58194    0.86756
  1   173      3.91278    0.05451


Fermi level: 3.55530

Gap: 2.492 eV
Transition (v -> c):
  (s=0, k=0, n=171, [0.25, -0.25, 0.25]) -> (s=0, k=1, n=172, [0.25, 0.25, 0.25])
Direct/indirect transitions are different
Direct gap: 2.492 eV
Transition at: (s=0, k=0, n=171, [0.25, -0.25, 0.25])
Timing:                              incl.     excl.
-----------------------------------------------------------
Hamiltonian:                         2.773     0.011   0.0% |
 Atomic:                             0.940     0.002   0.0% |
  XC Correction:                     0.937     0.937   0.1% |
 Calculate atomic Hamiltonians:      1.120     1.120   0.1% |
 Communicate:                        0.000     0.000   0.0% |
 Initialize Hamiltonian:             0.001     0.001   0.0% |
 Poisson:                            0.012     0.012   0.0% |
 XC 3D grid:                         0.690     0.690   0.0% |
LCAO initialization:                36.659     0.091   0.0% |
 LCAO eigensolver:                   1.438     0.000   0.0% |
  Calculate projections:             0.112     0.112   0.0% |
  DenseAtomicCorrection:             0.149     0.149   0.0% |
  Distribute overlap matrix:         0.001     0.001   0.0% |
  Orbital Layouts:                   0.481     0.481   0.0% |
  Potential matrix:                  0.664     0.664   0.0% |
  Sum over cells:                    0.030     0.030   0.0% |
 LCAO to grid:                      34.785    34.785   2.2% ||
 Set positions (LCAO WFS):           0.345     0.049   0.0% |
  Basic WFS set positions:           0.003     0.003   0.0% |
  Basis functions set positions:     0.000     0.000   0.0% |
  P tci:                             0.202     0.202   0.0% |
  ST tci:                            0.080     0.080   0.0% |
  mktci:                             0.011     0.011   0.0% |
PWDescriptor:                        0.048     0.048   0.0% |
SCF-cycle:                         559.995     0.058   0.0% |
 Davidson:                         451.206    83.439   5.3% |-|
  Apply H:                          72.278    70.607   4.5% |-|
   HMM T:                            1.672     1.672   0.1% |
  Subspace diag:                    92.826     0.005   0.0% |
   calc_h_matrix:                   82.494     8.253   0.5% |
    Apply H:                        74.242    72.525   4.6% |-|
     HMM T:                          1.716     1.716   0.1% |
   diagonalize:                      1.928     1.928   0.1% |
   rotate_psi:                       8.398     8.398   0.5% |
  calc. matrices:                  181.974    35.305   2.3% ||
   Apply H:                        146.669   143.311   9.2% |---|
    HMM T:                           3.358     3.358   0.2% |
  diagonalize:                       6.335     6.335   0.4% |
  rotate_psi:                       14.354    14.354   0.9% |
 Density:                           59.253     0.000   0.0% |
  Atomic density matrices:           0.078     0.078   0.0% |
  Mix:                              22.857    22.857   1.5% ||
  Multipole moments:                 0.007     0.007   0.0% |
  Pseudo density:                   36.311    35.073   2.2% ||
   Symmetrize density:               1.239     1.239   0.1% |
 Hamiltonian:                       47.998     0.163   0.0% |
  Atomic:                           17.382     0.040   0.0% |
   XC Correction:                   17.342    17.342   1.1% |
  Calculate atomic Hamiltonians:    18.727    18.727   1.2% |
  Communicate:                       0.000     0.000   0.0% |
  Poisson:                           0.223     0.223   0.0% |
  XC 3D grid:                       11.503    11.503   0.7% |
 Orthonormalize:                     1.480     0.001   0.0% |
  calc_s_matrix:                     0.208     0.208   0.0% |
  inverse-cholesky:                  0.004     0.004   0.0% |
  projections:                       0.925     0.925   0.1% |
  rotate_psi_s:                      0.342     0.342   0.0% |
Set symmetry:                        0.001     0.001   0.0% |
Other:                             965.026   965.026  61.7% |------------------------|
-----------------------------------------------------------
Total:                                      1564.502 100.0%

Memory usage: 5.00 GiB
Date: Fri Jul 17 20:06:51 2026
