
  ___ ___ ___ _ _ _  
 |   |   |_  | | | | 
 | | | | | . | | | | 
 |__ |  _|___|_____|  25.7.0
 |___|_|             

User:   buyer@DESKTOP-3EQA59H
Date:   Fri Jul 17 19:50:49 2026
Arch:   x86_64
Pid:    31768
CWD:    /mnt/c/Users/Buyer/dft-si
Python: 3.11.15
gpaw:   /home/buyer/miniconda3/envs/dft/lib/python3.11/site-packages/gpaw
_gpaw:  /home/buyer/miniconda3/envs/dft/lib/python3.11/site-packages/
        _gpaw.cpython-311-x86_64-linux-gnu.so
ase:    /home/buyer/miniconda3/envs/dft/lib/python3.11/site-packages/ase (version 3.29.0)
numpy:  /home/buyer/miniconda3/envs/dft/lib/python3.11/site-packages/numpy (version 2.4.6)
scipy:  /home/buyer/miniconda3/envs/dft/lib/python3.11/site-packages/scipy (version 1.17.1)
libxc:  7.0.0
units:  Angstrom and eV
cores: 1
OpenMP: True
OMP_NUM_THREADS: 1

Input parameters:
  kpts: [2 2 2]
  mode: {ecut: 600.0,
         name: pw}
  xc: PBE

System changes: positions, numbers, cell, pbc, initial_charges, initial_magmoms 

Initialize ...

species:
  Cs:
    name: Caesium
    id: fa822afd343f47335d508b9ee4f394c3
    Z: 55.0
    valence: 9
    core: 46
    charge: 0.0
    file: /home/buyer/miniconda3/envs/dft/lib/python3.11/site-packages/gpaw_data/setups/Cs.PBE.gz
    compensation charges: {type: gauss,
                           rc: 0.33,
                           lmax: 2}
    cutoffs: {filter: 2.06,
              core: 2.51}
    projectors:
      #              energy  rcut
      - 5s(2.00)   -26.706   1.164
      - 6s(1.00)    -2.085   1.164
      - 5p(6.00)   -13.523   1.058
      -  p          13.688   1.058
      -  d           0.000   1.058
  
    # Using partial waves for Cs as LCAO basis

  Pb:
    name: Lead
    id: 66e73b13d76dc837202bcdb13fee58e6
    Z: 82.0
    valence: 14
    core: 68
    charge: 0.0
    file: /home/buyer/miniconda3/envs/dft/lib/python3.11/site-packages/gpaw_data/setups/Pb.PBE.gz
    compensation charges: {type: gauss,
                           rc: 0.38,
                           lmax: 2}
    cutoffs: {filter: 2.36,
              core: 2.43}
    projectors:
      #              energy  rcut
      - 6s(2.00)   -11.969   1.259
      - 6p(2.00)    -3.506   1.275
      - 5d(10.00)   -21.211   1.217
      -  s          15.243   1.259
      -  p          23.705   1.275
      -  d           6.001   1.217
  
    # Using partial waves for Pb as LCAO basis

  I:
    name: Iodine
    id: 91405a398e4dfe788ff04f57531604ec
    Z: 53.0
    valence: 7
    core: 46
    charge: 0.0
    file: /home/buyer/miniconda3/envs/dft/lib/python3.11/site-packages/gpaw_data/setups/I.PBE.gz
    compensation charges: {type: gauss,
                           rc: 0.37,
                           lmax: 2}
    cutoffs: {filter: 2.06,
              core: 2.90}
    projectors:
      #              energy  rcut
      - 5s(2.00)   -17.382   1.164
      - 5p(5.00)    -7.088   1.164
      -  s           9.829   1.164
      -  p          20.123   1.164
      -  d           0.000   1.164
  
    # Using partial waves for I as LCAO basis

Reference energy: -10684034.619125  # eV

Spin-paired calculation

Convergence criteria:
 Maximum [total energy] change in last 3 cyles: 0.0005 eV / valence electron
 Maximum integral of absolute [dens]ity change: 0.0001 electrons / valence electron
 Maximum integral of absolute [eigenst]ate change: 4e-08 eV^2 / valence electron
 Maximum number of scf [iter]ations: 333
 (Square brackets indicate name in SCF output, whereas a 'c' in
 the SCF output indicates the quantity has converged.)

Symmetries present (total): 1

  ( 1  0  0)
  ( 0  1  0)
  ( 0  0  1)

8 k-points: 2 x 2 x 2 Monkhorst-Pack grid
4 k-points in the irreducible part of the Brillouin zone
       k-points in crystal coordinates                weights
   0:     0.25000000   -0.25000000   -0.25000000          2/8
   1:     0.25000000   -0.25000000    0.25000000          2/8
   2:     0.25000000    0.25000000   -0.25000000          2/8
   3:     0.25000000    0.25000000    0.25000000          2/8

Wave functions: Plane wave expansion
  Cutoff energy: 600.000 eV
  Number of coefficients (min, max): 70618, 70618
  Pulay-stress correction: 0.000000 eV/Ang^3 (de/decut=0.000000)
  Using FFTW library
  ScaLapack parameters: grid=1x1, blocksize=None
  Wavefunction extrapolation:
    Improved wavefunction reuse through dual PAW basis 

Occupation numbers: Fermi-Dirac:
  width: 0.1000  # eV
 

Eigensolver
   Davidson(niter=2) 

Densities:
  Coarse grid: 75*75*75 grid
  Fine grid: 150*150*150 grid
  Total Charge: 0.000000 

Density mixing:
  Method: separate
  Backend: pulay
  Linear mixing parameter: 0.05
  old densities: 5
  Damping of long wavelength oscillations: 50 

Hamiltonian:
  XC and Coulomb potentials evaluated on a 150*150*150 grid
  Using the PBE Exchange-Correlation functional
  External potential:
    NoExternalPotential
 

XC parameters: PBE with 2 nearest neighbor stencil

Memory estimate:
  Process memory now: 5052.94 MiB
  Calculator: 1478.28 MiB
    Density: 228.59 MiB
      Arrays: 83.68 MiB
      Localized functions: 112.72 MiB
      Mixer: 32.19 MiB
    Hamiltonian: 57.76 MiB
      Arrays: 54.72 MiB
      XC: 0.00 MiB
      Poisson: 0.00 MiB
      vbar: 3.05 MiB
    Wavefunctions: 1191.93 MiB
      Arrays psit_nG: 879.28 MiB
      Eigensolver: 231.56 MiB
      Projections: 6.81 MiB
      Projectors: 53.88 MiB
      PW-descriptor: 20.40 MiB

Total number of cores used: 1

Number of atoms: 39
Number of atomic orbitals: 204
Number of bands in calculation: 204
Number of valence electrons: 345
Bands to converge: occupied

... initialized

Initializing position-dependent things.

Density initialized from atomic densities
Creating initial wave functions:
  204 bands from LCAO basis set

         .-----------------------------Cs  
        /|                              |  
       / |                              |  
      /  |                              |  
     /   |                      I   Cs  |  
    /    |                              |  
   /   I |     Pb      I  I   Pb        |  
  /      |                              |  
 *       Cs I               I           |  
 |       |                              |  
 |       |Pb   I  I       Pb  I   I     |  
 |   Cs  |                              |  
 |      I|          Cs                  |  
 |       |                              |  
 |     I |I    Pb      I  I   Pb        |  
 |       |                              |  
 |       .---I---Cs------Cs--I----------.  
 |      /                              /   
 |     /   Pb  I   I      Pb  I       /    
 |    /                              /     
 |   /   I           Cs  I          /      
 |  /I                             /       
 | /                              /        
 |/                              /         
 *------------------------------*          

Atomic positions and initial magnetic moments

Positions:
   0 Cs    -0.133928   -0.280196   -0.136760    ( 0.0000,  0.0000,  0.0000)
   1 Pb     3.227371    3.195000    3.301720    ( 0.0000,  0.0000,  0.0000)
   2 I      1.012542    3.195000    1.149612    ( 0.0000,  0.0000,  0.0000)
   3 I      3.379455    0.029317    3.481694    ( 0.0000,  0.0000,  0.0000)
   4 Cs     0.087195   -0.267779    6.774509    ( 0.0000,  0.0000,  0.0000)
   5 Pb     3.063317    3.195000    9.632650    ( 0.0000,  0.0000,  0.0000)
   6 I      3.079640    3.195000    6.550138    ( 0.0000,  0.0000,  0.0000)
   7 I     -0.103730    3.195000    9.392448    ( 0.0000,  0.0000,  0.0000)
   8 I      3.077126    0.016563    9.871084    ( 0.0000,  0.0000,  0.0000)
   9 Cs    -0.133928    6.670196   -0.136760    ( 0.0000,  0.0000,  0.0000)
  10 Pb     3.282277    9.585000    3.333106    ( 0.0000,  0.0000,  0.0000)
  11 I      3.245022    9.585000    0.105112    ( 0.0000,  0.0000,  0.0000)
  12 I      0.094554    9.585000    3.328251    ( 0.0000,  0.0000,  0.0000)
  13 I      3.379455    6.360683    3.481694    ( 0.0000,  0.0000,  0.0000)
  14 Cs     0.087195    6.657779    6.774509    ( 0.0000,  0.0000,  0.0000)
  15 Pb     3.230330    9.585000    9.825651    ( 0.0000,  0.0000,  0.0000)
  16 I      3.223309    9.585000    6.588499    ( 0.0000,  0.0000,  0.0000)
  17 I      0.006074    9.585000    9.765843    ( 0.0000,  0.0000,  0.0000)
  18 I      3.077126    6.373437    9.871084    ( 0.0000,  0.0000,  0.0000)
  19 Cs     6.697810   -0.254477    0.071994    ( 0.0000,  0.0000,  0.0000)
  20 Pb     9.545406    3.195000    3.084252    ( 0.0000,  0.0000,  0.0000)
  21 I      9.345268    3.195000   -0.113666    ( 0.0000,  0.0000,  0.0000)
  22 I      6.449285    3.195000    3.025014    ( 0.0000,  0.0000,  0.0000)
  23 I      9.717215    0.013013    3.118832    ( 0.0000,  0.0000,  0.0000)
  24 Cs     6.395896    0.090136    6.457895    ( 0.0000,  0.0000,  0.0000)
  25 Pb     9.478954    3.195000    9.594516    ( 0.0000,  0.0000,  0.0000)
  26 I      9.350673    3.195000    6.331686    ( 0.0000,  0.0000,  0.0000)
  27 I      6.263562    3.195000    9.547698    ( 0.0000,  0.0000,  0.0000)
  28 I      9.572526   -0.007072    9.695340    ( 0.0000,  0.0000,  0.0000)
  29 Cs     6.697810    6.644477    0.071994    ( 0.0000,  0.0000,  0.0000)
  30 Pb     9.685403    9.585000    3.270607    ( 0.0000,  0.0000,  0.0000)
  31 I      9.664202    9.585000    0.002912    ( 0.0000,  0.0000,  0.0000)
  32 I      6.487838    9.585000    3.211056    ( 0.0000,  0.0000,  0.0000)
  33 I      9.717215    6.376987    3.118832    ( 0.0000,  0.0000,  0.0000)
  34 Cs     6.395896    6.299864    6.457895    ( 0.0000,  0.0000,  0.0000)
  35 Pb     9.573687    9.585000    9.693899    ( 0.0000,  0.0000,  0.0000)
  36 I      9.668126    9.585000    6.481384    ( 0.0000,  0.0000,  0.0000)
  37 I      6.403257    9.585000    9.853311    ( 0.0000,  0.0000,  0.0000)
  38 I      9.572526    6.397072    9.695340    ( 0.0000,  0.0000,  0.0000)

Unit cell:
           periodic     x           y           z      points  spacing
  1. axis:    yes   12.780000    0.000000    0.000000    75     0.1704
  2. axis:    yes    0.000000   12.780000    0.000000    75     0.1704
  3. axis:    yes    0.000000    0.000000   12.949974    75     0.1727

  Lengths:  12.780000  12.780000  12.949974
  Angles:   90.000000  90.000000  90.000000

Effective grid spacing dv^(1/3) = 0.1712

     iter     time        total  log10-change:
                         energy   eigst   dens
iter:   1 19:52:50  -113.484827
iter:   2 19:53:42  -112.923906   -1.42  -1.29
iter:   3 19:54:34  -110.665468   -2.01  -1.34
iter:   4 19:55:25  -110.317858   -1.99  -1.53
iter:   5 19:56:17  -110.281079   -2.76  -1.72
iter:   6 19:57:13  -110.211498c  -3.57  -2.08
iter:   7 19:58:06  -110.155777c  -3.53  -2.29
iter:   8 19:58:57  -110.155301c  -4.56  -2.41
iter:   9 19:59:50  -110.160259c  -4.46  -2.65
iter:  10 20:00:42  -110.160145c  -5.22  -2.88
iter:  11 20:01:33  -110.159474c  -6.09  -3.11
iter:  12 20:02:27  -110.159248c  -5.49  -3.15
iter:  13 20:03:19  -110.159276c  -6.02  -3.37
iter:  14 20:04:11  -110.159271c  -6.58  -3.47
iter:  15 20:05:04  -110.159341c  -6.63  -3.54
iter:  16 20:05:57  -110.159624c  -6.50  -3.60
iter:  17 20:06:51  -110.159592c  -7.67c -4.04c

Converged after 17 iterations.

Dipole moment: (5.263457, 71.696942, 13.241285) |e|*Ang

Energy contributions relative to reference atoms: (reference = -10684034.619125)

Kinetic:       +191.005761
Potential:     -199.094083
External:        +0.000000
XC:            -101.109863
Entropy (-ST):   -0.227340
Local:           -0.847738
SIC:             +0.000000
--------------------------
Free energy:   -110.273262
Extrapolated:  -110.159592

Showing only first 2 kpts
 Kpt  Band  Eigenvalues  Occupancy
  0   170      0.99136    2.00000
  0   171      1.13541    2.00000
  0   172      3.54878    0.90748
  0   173      3.82873    0.09620

  1   170      0.98810    2.00000
  1   171      1.12676    2.00000
  1   172      3.59252    0.69821
  1   173      3.82403    0.10060


Fermi level: 3.53022

Gap: 2.413 eV
Transition (v -> c):
  (s=0, k=0, n=171, [0.25, -0.25, -0.25]) -> (s=0, k=0, n=172, [0.25, -0.25, -0.25])
No difference between direct/indirect transitions
Timing:                              incl.     excl.
-----------------------------------------------------------
Hamiltonian:                         2.891     0.013   0.0% |
 Atomic:                             0.930     0.002   0.0% |
  XC Correction:                     0.928     0.928   0.1% |
 Calculate atomic Hamiltonians:      1.263     1.263   0.1% |
 Communicate:                        0.000     0.000   0.0% |
 Initialize Hamiltonian:             0.001     0.001   0.0% |
 Poisson:                            0.015     0.015   0.0% |
 XC 3D grid:                         0.669     0.669   0.1% |
LCAO initialization:                66.353     0.084   0.0% |
 LCAO eigensolver:                   1.009     0.001   0.0% |
  Calculate projections:             0.022     0.022   0.0% |
  DenseAtomicCorrection:             0.091     0.091   0.0% |
  Distribute overlap matrix:         0.001     0.001   0.0% |
  Orbital Layouts:                   0.165     0.165   0.0% |
  Potential matrix:                  0.667     0.667   0.1% |
  Sum over cells:                    0.064     0.064   0.0% |
 LCAO to grid:                      64.794    64.794   6.7% |--|
 Set positions (LCAO WFS):           0.467     0.056   0.0% |
  Basic WFS set positions:           0.001     0.001   0.0% |
  Basis functions set positions:     0.000     0.000   0.0% |
  P tci:                             0.327     0.327   0.0% |
  ST tci:                            0.074     0.074   0.0% |
  mktci:                             0.008     0.008   0.0% |
PWDescriptor:                        0.064     0.064   0.0% |
SCF-cycle:                         887.654     0.044   0.0% |
 Davidson:                         764.399   133.431  13.9% |-----|
  Apply H:                         124.874   122.026  12.7% |----|
   HMM T:                            2.848     2.848   0.3% |
  Subspace diag:                   157.249     0.010   0.0% |
   calc_h_matrix:                  141.365    13.993   1.5% ||
    Apply H:                       127.373   124.123  12.9% |----|
     HMM T:                          3.250     3.250   0.3% |
   diagonalize:                      2.305     2.305   0.2% |
   rotate_psi:                      13.569    13.569   1.4% ||
  calc. matrices:                  313.545    61.232   6.4% |--|
   Apply H:                        252.312   246.514  25.6% |---------|
    HMM T:                           5.799     5.799   0.6% |
  diagonalize:                      10.911    10.911   1.1% |
  rotate_psi:                       24.389    24.389   2.5% ||
 Density:                           79.553     0.000   0.0% |
  Atomic density matrices:           0.099     0.099   0.0% |
  Mix:                              20.068    20.068   2.1% ||
  Multipole moments:                 0.006     0.006   0.0% |
  Pseudo density:                   59.380    59.380   6.2% |-|
   Symmetrize density:               0.000     0.000   0.0% |
 Hamiltonian:                       41.212     0.147   0.0% |
  Atomic:                           14.759     0.035   0.0% |
   XC Correction:                   14.724    14.724   1.5% ||
  Calculate atomic Hamiltonians:    15.978    15.978   1.7% ||
  Communicate:                       0.000     0.000   0.0% |
  Poisson:                           0.193     0.193   0.0% |
  XC 3D grid:                       10.135    10.135   1.1% |
 Orthonormalize:                     2.447     0.001   0.0% |
  calc_s_matrix:                     0.368     0.368   0.0% |
  inverse-cholesky:                  0.014     0.014   0.0% |
  projections:                       1.558     1.558   0.2% |
  rotate_psi_s:                      0.506     0.506   0.1% |
Set symmetry:                        0.001     0.001   0.0% |
Other:                               4.559     4.559   0.5% |
-----------------------------------------------------------
Total:                                       961.521 100.0%

Memory usage: 5.00 GiB
Date: Fri Jul 17 20:06:51 2026
