
  ___ ___ ___ _ _ _  
 |   |   |_  | | | | 
 | | | | | . | | | | 
 |__ |  _|___|_____|  25.7.0
 |___|_|             

User:   buyer@DESKTOP-3EQA59H
Date:   Thu Jul 16 13:39:19 2026
Arch:   x86_64
Pid:    21294
CWD:    /mnt/c/Users/Buyer/dft-si
Python: 3.11.15
gpaw:   /home/buyer/miniconda3/envs/dft/lib/python3.11/site-packages/gpaw
_gpaw:  /home/buyer/miniconda3/envs/dft/lib/python3.11/site-packages/
        _gpaw.cpython-311-x86_64-linux-gnu.so
ase:    /home/buyer/miniconda3/envs/dft/lib/python3.11/site-packages/ase (version 3.29.0)
numpy:  /home/buyer/miniconda3/envs/dft/lib/python3.11/site-packages/numpy (version 2.4.6)
scipy:  /home/buyer/miniconda3/envs/dft/lib/python3.11/site-packages/scipy (version 1.17.1)
libxc:  7.0.0
units:  Angstrom and eV
cores: 1
OpenMP: True
OMP_NUM_THREADS: 1

Input parameters:
  kpts: [2 2 2]
  mode: {ecut: 600.0,
         name: pw}
  xc: PBE

System changes: positions, numbers, cell, pbc, initial_charges, initial_magmoms 

Initialize ...

species:
  Cs:
    name: Caesium
    id: fa822afd343f47335d508b9ee4f394c3
    Z: 55.0
    valence: 9
    core: 46
    charge: 0.0
    file: /home/buyer/miniconda3/envs/dft/lib/python3.11/site-packages/gpaw_data/setups/Cs.PBE.gz
    compensation charges: {type: gauss,
                           rc: 0.33,
                           lmax: 2}
    cutoffs: {filter: 2.06,
              core: 2.51}
    projectors:
      #              energy  rcut
      - 5s(2.00)   -26.706   1.164
      - 6s(1.00)    -2.085   1.164
      - 5p(6.00)   -13.523   1.058
      -  p          13.688   1.058
      -  d           0.000   1.058
  
    # Using partial waves for Cs as LCAO basis

  Pb:
    name: Lead
    id: 66e73b13d76dc837202bcdb13fee58e6
    Z: 82.0
    valence: 14
    core: 68
    charge: 0.0
    file: /home/buyer/miniconda3/envs/dft/lib/python3.11/site-packages/gpaw_data/setups/Pb.PBE.gz
    compensation charges: {type: gauss,
                           rc: 0.38,
                           lmax: 2}
    cutoffs: {filter: 2.36,
              core: 2.43}
    projectors:
      #              energy  rcut
      - 6s(2.00)   -11.969   1.259
      - 6p(2.00)    -3.506   1.275
      - 5d(10.00)   -21.211   1.217
      -  s          15.243   1.259
      -  p          23.705   1.275
      -  d           6.001   1.217
  
    # Using partial waves for Pb as LCAO basis

  I:
    name: Iodine
    id: 91405a398e4dfe788ff04f57531604ec
    Z: 53.0
    valence: 7
    core: 46
    charge: 0.0
    file: /home/buyer/miniconda3/envs/dft/lib/python3.11/site-packages/gpaw_data/setups/I.PBE.gz
    compensation charges: {type: gauss,
                           rc: 0.37,
                           lmax: 2}
    cutoffs: {filter: 2.06,
              core: 2.90}
    projectors:
      #              energy  rcut
      - 5s(2.00)   -17.382   1.164
      - 5p(5.00)    -7.088   1.164
      -  s           9.829   1.164
      -  p          20.123   1.164
      -  d           0.000   1.164
  
    # Using partial waves for I as LCAO basis

Reference energy: -10684034.619125  # eV

Spin-paired calculation

Convergence criteria:
 Maximum [total energy] change in last 3 cyles: 0.0005 eV / valence electron
 Maximum integral of absolute [dens]ity change: 0.0001 electrons / valence electron
 Maximum integral of absolute [eigenst]ate change: 4e-08 eV^2 / valence electron
 Maximum number of scf [iter]ations: 333
 (Square brackets indicate name in SCF output, whereas a 'c' in
 the SCF output indicates the quantity has converged.)

Symmetries present (total): 1

  ( 1  0  0)
  ( 0  1  0)
  ( 0  0  1)

8 k-points: 2 x 2 x 2 Monkhorst-Pack grid
4 k-points in the irreducible part of the Brillouin zone
       k-points in crystal coordinates                weights
   0:     0.25000000   -0.25000000   -0.25000000          2/8
   1:     0.25000000   -0.25000000    0.25000000          2/8
   2:     0.25000000    0.25000000   -0.25000000          2/8
   3:     0.25000000    0.25000000    0.25000000          2/8

Wave functions: Plane wave expansion
  Cutoff energy: 600.000 eV
  Number of coefficients (min, max): 69650, 69650
  Pulay-stress correction: 0.000000 eV/Ang^3 (de/decut=0.000000)
  Using FFTW library
  ScaLapack parameters: grid=1x1, blocksize=None
  Wavefunction extrapolation:
    Improved wavefunction reuse through dual PAW basis 

Occupation numbers: Fermi-Dirac:
  width: 0.1000  # eV
 

Eigensolver
   Davidson(niter=2) 

Densities:
  Coarse grid: 75*75*75 grid
  Fine grid: 150*150*150 grid
  Total Charge: 0.000000 

Density mixing:
  Method: separate
  Backend: pulay
  Linear mixing parameter: 0.05
  old densities: 5
  Damping of long wavelength oscillations: 50 

Hamiltonian:
  XC and Coulomb potentials evaluated on a 150*150*150 grid
  Using the PBE Exchange-Correlation functional
  External potential:
    NoExternalPotential
 

XC parameters: PBE with 2 nearest neighbor stencil

Memory estimate:
  Process memory now: 396.51 MiB
  Calculator: 1460.82 MiB
    Density: 227.10 MiB
      Arrays: 83.68 MiB
      Localized functions: 111.23 MiB
      Mixer: 32.19 MiB
    Hamiltonian: 57.72 MiB
      Arrays: 54.72 MiB
      XC: 0.00 MiB
      Poisson: 0.00 MiB
      vbar: 3.01 MiB
    Wavefunctions: 1175.99 MiB
      Arrays psit_nG: 867.22 MiB
      Eigensolver: 228.48 MiB
      Projections: 6.81 MiB
      Projectors: 53.14 MiB
      PW-descriptor: 20.34 MiB

Total number of cores used: 1

Number of atoms: 39
Number of atomic orbitals: 204
Number of bands in calculation: 204
Number of valence electrons: 345
Bands to converge: occupied

... initialized

Initializing position-dependent things.

Density initialized from atomic densities
Creating initial wave functions:
  204 bands from LCAO basis set

         .------------------------------Cs 
        /|                              |  
       / |                    I         |  
      /  |                              |  
     /   |                      I   Cs  |  
    /    |                              |  
   /     |     Pb      I  I   Pb      I |  
  /      |                              |  
 *       Cs  I              I           |  
 |       |                              |  
 |       |Pb   I  I       Pb   I  I     |  
 |       |                              |  
 |   Cs  I           Cs                 |  
 |       |                              |  
 |     I | I   Pb      I  I   Pb        |  
 |       |                              |  
 |       .---I---Cs------Cs--I----------.  
 |      /                              /   
 |     /   Pb  I   I      Pb          /    
 |    /                              /     
 |   /   I           Cs  I          /      
 |  /I                             /       
 | /                              /        
 |/                              /         
 *------------------------------*          

Atomic positions and initial magnetic moments

Positions:
   0 Cs    -0.127797   -0.295440   -0.109854    ( 0.0000,  0.0000,  0.0000)
   1 Pb     3.268687    3.194996    3.245641    ( 0.0000,  0.0000,  0.0000)
   2 I      0.970017    3.195119    1.169631    ( 0.0000,  0.0000,  0.0000)
   3 I      3.385709    0.024457    3.381662    ( 0.0000,  0.0000,  0.0000)
   4 Cs     0.062689   -0.258797    6.633687    ( 0.0000,  0.0000,  0.0000)
   5 Pb     3.075655    3.194986    9.526337    ( 0.0000,  0.0000,  0.0000)
   6 I      3.100791    3.194509    6.431833    ( 0.0000,  0.0000,  0.0000)
   7 I     -0.092715    3.194973    9.285150    ( 0.0000,  0.0000,  0.0000)
   8 I      3.123691    0.020959    9.751319    ( 0.0000,  0.0000,  0.0000)
   9 Cs    -0.127909    6.685512   -0.109959    ( 0.0000,  0.0000,  0.0000)
  10 Pb     3.276752    9.584972    3.271633    ( 0.0000,  0.0000,  0.0000)
  11 I      3.308115    9.584420    0.074803    ( 0.0000,  0.0000,  0.0000)
  12 I      0.078216    9.585026    3.221292    ( 0.0000,  0.0000,  0.0000)
  13 I      3.385495    6.365529    3.382813    ( 0.0000,  0.0000,  0.0000)
  14 Cs     0.062784    6.648873    6.633596    ( 0.0000,  0.0000,  0.0000)
  15 Pb     3.222802    9.585022    9.670395    ( 0.0000,  0.0000,  0.0000)
  16 I      3.201389    9.585574    6.482166    ( 0.0000,  0.0000,  0.0000)
  17 I     -0.002905    9.585039    9.659279    ( 0.0000,  0.0000,  0.0000)
  18 I      3.123617    6.369074    9.750204    ( 0.0000,  0.0000,  0.0000)
  19 Cs     6.628592   -0.228253    0.043696    ( 0.0000,  0.0000,  0.0000)
  20 Pb     9.565302    3.195022    3.070857    ( 0.0000,  0.0000,  0.0000)
  21 I      9.399275    3.195091   -0.097301    ( 0.0000,  0.0000,  0.0000)
  22 I      6.457994    3.195074    2.992131    ( 0.0000,  0.0000,  0.0000)
  23 I      9.745840    0.017437    3.141710    ( 0.0000,  0.0000,  0.0000)
  24 Cs     6.410195    0.053261    6.405464    ( 0.0000,  0.0000,  0.0000)
  25 Pb     9.482171    3.195006    9.472372    ( 0.0000,  0.0000,  0.0000)
  26 I      9.341024    3.194941    6.267951    ( 0.0000,  0.0000,  0.0000)
  27 I      6.264797    3.195047    9.526156    ( 0.0000,  0.0000,  0.0000)
  28 I      9.548278   -0.007930    9.543775    ( 0.0000,  0.0000,  0.0000)
  29 Cs     6.628774    6.618294    0.043689    ( 0.0000,  0.0000,  0.0000)
  30 Pb     9.669065    9.585016    3.225440    ( 0.0000,  0.0000,  0.0000)
  31 I      9.582732    9.584975   -0.000739    ( 0.0000,  0.0000,  0.0000)
  32 I      6.484405    9.584958    3.296460    ( 0.0000,  0.0000,  0.0000)
  33 I      9.745850    6.372597    3.141808    ( 0.0000,  0.0000,  0.0000)
  34 Cs     6.410192    6.336724    6.405571    ( 0.0000,  0.0000,  0.0000)
  35 Pb     9.564990    9.585015    9.566291    ( 0.0000,  0.0000,  0.0000)
  36 I      9.708592    9.585067    6.403198    ( 0.0000,  0.0000,  0.0000)
  37 I      6.399531    9.584966    9.605550    ( 0.0000,  0.0000,  0.0000)
  38 I      9.548334    6.397952    9.543676    ( 0.0000,  0.0000,  0.0000)

Unit cell:
           periodic     x           y           z      points  spacing
  1. axis:    yes   12.780000    0.000000    0.000000    75     0.1704
  2. axis:    yes    0.000000   12.780000    0.000000    75     0.1704
  3. axis:    yes    0.000000    0.000000   12.780000    75     0.1704

  Lengths:  12.780000  12.780000  12.780000
  Angles:   90.000000  90.000000  90.000000

Effective grid spacing dv^(1/3) = 0.1704

     iter     time        total  log10-change:
                         energy   eigst   dens
iter:   1 13:42:26  -113.377023
iter:   2 13:43:45  -112.845338   -1.41  -1.30
iter:   3 13:45:10  -110.670370   -2.03  -1.34
iter:   4 13:46:36  -110.325197   -1.99  -1.53
iter:   5 13:48:05  -110.287235   -2.79  -1.73
iter:   6 13:49:36  -110.229007c  -3.64  -2.09
iter:   7 13:50:42  -110.167992c  -3.53  -2.29
iter:   8 13:51:42  -110.167584c  -4.51  -2.41
iter:   9 13:52:52  -110.172152c  -4.51  -2.66
iter:  10 13:54:08  -110.172394c  -5.23  -2.88
iter:  11 13:55:14  -110.171696c  -6.10  -3.13
iter:  12 13:56:21  -110.171778c  -5.52  -3.17
iter:  13 13:57:26  -110.171843c  -6.05  -3.37
iter:  14 13:58:56  -110.171553c  -6.73  -3.48
iter:  15 14:00:23  -110.171388c  -6.68  -3.54
iter:  16 14:01:34  -110.172118c  -6.58  -3.62
iter:  17 14:03:08  -110.172025c  -7.39  -4.07c
iter:  18 14:04:06  -110.171801c  -7.70c -4.14c

Converged after 18 iterations.

Dipole moment: (11.385070, 75.179587, 16.884009) |e|*Ang

Energy contributions relative to reference atoms: (reference = -10684034.619125)

Kinetic:       +198.418713
Potential:     -205.092836
External:        +0.000000
XC:            -102.513590
Entropy (-ST):   -0.225661
Local:           -0.871258
SIC:             +0.000000
--------------------------
Free energy:   -110.284631
Extrapolated:  -110.171801

Showing only first 2 kpts
 Kpt  Band  Eigenvalues  Occupancy
  0   170      1.09434    2.00000
  0   171      1.26837    2.00000
  0   172      3.66878    0.92493
  0   173      3.97138    0.08012

  1   170      1.09656    2.00000
  1   171      1.26526    2.00000
  1   172      3.71676    0.69493
  1   173      3.95775    0.09129


Fermi level: 3.65374

Gap: 2.400 eV
Transition (v -> c):
  (s=0, k=0, n=171, [0.25, -0.25, -0.25]) -> (s=0, k=2, n=172, [0.25, 0.25, -0.25])
Direct/indirect transitions are different
Direct gap: 2.400 eV
Transition at: (s=0, k=2, n=171, [0.25, 0.25, -0.25])

Forces in eV/Ang:
  0 Cs    0.00005    0.00067    0.00624
  1 Pb   -0.12751   -0.00004   -0.15990
  2 I    -0.03620    0.00003   -0.00029
  3 I    -0.00971   -0.15367   -0.00735
  4 Cs    0.01852    0.01167    0.01266
  5 Pb    0.01120   -0.00012    0.07947
  6 I    -0.09479   -0.00012    0.09102
  7 I    -0.08191   -0.00001   -0.02580
  8 I    -0.01159   -0.08551    0.04660
  9 Cs    0.00002   -0.00064    0.00622
 10 Pb    0.01036    0.00008    0.00952
 11 I    -0.00107   -0.00010    0.03327
 12 I     0.02977    0.00001   -0.02260
 13 I    -0.00982    0.15363   -0.00715
 14 Cs    0.01855   -0.01163    0.01263
 15 Pb   -0.01164    0.00008   -0.01877
 16 I    -0.02871    0.00009    0.00092
 17 I     0.01557    0.00001   -0.00234
 18 I    -0.01161    0.08553    0.04644
 19 Cs    0.01086    0.02091    0.01657
 20 Pb    0.05300   -0.00004   -0.00940
 21 I    -0.01512    0.00001   -0.06257
 22 I     0.10817    0.00004   -0.11750
 23 I     0.04334   -0.07540   -0.00858
 24 Cs   -0.00973    0.01873   -0.01035
 25 Pb    0.02533   -0.00003    0.03496
 26 I    -0.00423   -0.00001    0.05547
 27 I     0.06876    0.00001    0.01178
 28 I     0.00519   -0.00304    0.00614
 29 Cs    0.01092   -0.02091    0.01656
 30 Pb   -0.01577    0.00004   -0.01260
 31 I    -0.00777    0.00000    0.01823
 32 I     0.00356   -0.00002   -0.01437
 33 I     0.04336    0.07541   -0.00856
 34 Cs   -0.00970   -0.01873   -0.01031
 35 Pb    0.00623    0.00004    0.00812
 36 I     0.01445    0.00001   -0.01509
 37 I    -0.01206   -0.00000   -0.00139
 38 I     0.00520    0.00304    0.00612

Timing:                              incl.     excl.
-----------------------------------------------------------
Forces:                             13.535    13.535   0.9% |
Hamiltonian:                         3.602     0.012   0.0% |
 Atomic:                             0.936     0.003   0.0% |
  XC Correction:                     0.933     0.933   0.1% |
 Calculate atomic Hamiltonians:      1.861     1.861   0.1% |
 Communicate:                        0.000     0.000   0.0% |
 Initialize Hamiltonian:             0.001     0.001   0.0% |
 Poisson:                            0.013     0.013   0.0% |
 XC 3D grid:                         0.779     0.779   0.1% |
LCAO initialization:                85.729     0.085   0.0% |
 LCAO eigensolver:                   0.838     0.001   0.0% |
  Calculate projections:             0.010     0.010   0.0% |
  DenseAtomicCorrection:             0.011     0.011   0.0% |
  Distribute overlap matrix:         0.002     0.002   0.0% |
  Orbital Layouts:                   0.083     0.083   0.0% |
  Potential matrix:                  0.663     0.663   0.0% |
  Sum over cells:                    0.068     0.068   0.0% |
 LCAO to grid:                      84.338    84.338   5.6% |-|
 Set positions (LCAO WFS):           0.469     0.059   0.0% |
  Basic WFS set positions:           0.000     0.000   0.0% |
  Basis functions set positions:     0.000     0.000   0.0% |
  P tci:                             0.326     0.326   0.0% |
  ST tci:                            0.071     0.071   0.0% |
  mktci:                             0.013     0.013   0.0% |
PWDescriptor:                        0.280     0.280   0.0% |
SCF-cycle:                        1391.205     0.080   0.0% |
 Davidson:                        1232.871   252.496  16.8% |------|
  Apply H:                         162.882   159.379  10.6% |---|
   HMM T:                            3.504     3.504   0.2% |
  Subspace diag:                   219.333     0.012   0.0% |
   calc_h_matrix:                  184.482    20.106   1.3% ||
    Apply H:                       164.376   160.413  10.7% |---|
     HMM T:                          3.963     3.963   0.3% |
   diagonalize:                     14.958    14.958   1.0% |
   rotate_psi:                      19.882    19.882   1.3% ||
  calc. matrices:                  458.747   126.664   8.4% |--|
   Apply H:                        332.083   324.916  21.6% |--------|
    HMM T:                           7.167     7.167   0.5% |
  diagonalize:                     103.624   103.624   6.9% |--|
  rotate_psi:                       35.789    35.789   2.4% ||
 Density:                          101.736     0.000   0.0% |
  Atomic density matrices:           0.129     0.129   0.0% |
  Mix:                              26.601    26.601   1.8% ||
  Multipole moments:                 0.007     0.007   0.0% |
  Pseudo density:                   74.999    74.998   5.0% |-|
   Symmetrize density:               0.000     0.000   0.0% |
 Hamiltonian:                       50.883     0.174   0.0% |
  Atomic:                           16.398     0.042   0.0% |
   XC Correction:                   16.356    16.356   1.1% |
  Calculate atomic Hamiltonians:    22.256    22.256   1.5% ||
  Communicate:                       0.000     0.000   0.0% |
  Poisson:                           0.266     0.266   0.0% |
  XC 3D grid:                       11.790    11.790   0.8% |
 Orthonormalize:                     5.636     0.001   0.0% |
  calc_s_matrix:                     0.967     0.967   0.1% |
  inverse-cholesky:                  0.126     0.126   0.0% |
  projections:                       3.838     3.838   0.3% |
  rotate_psi_s:                      0.704     0.704   0.0% |
Set symmetry:                        0.002     0.002   0.0% |
Other:                               6.566     6.566   0.4% |
-----------------------------------------------------------
Total:                                      1500.920 100.0%

Memory usage: 2.99 GiB
Date: Thu Jul 16 14:04:20 2026
