39
Lattice="12.78 0.0 0.0 0.0 12.78 0.0 0.0 0.0 12.78" Properties=species:S:1:pos:R:3:forces:R:3 spacegroup="P m -3 m" unit_cell=conventional energy=-110.6917653738901 pbc="T T T"
Cs      -0.12779717      -0.29543989      -0.10985406      -0.00218664       0.01216605      -0.00018541
Pb       3.26868726       3.19499636       3.24564145      -0.02714209       0.00000416      -0.02800244
I        0.97001722       3.19511909       1.16963079      -0.02511571       0.00002533      -0.00340434
I        3.38570909       0.02445742       3.38166208      -0.00161266       0.00811640      -0.00144724
Cs       0.06268912      -0.25879736       6.63368721       0.00056352       0.00296375       0.00373435
Pb       3.07565497       3.19498562       9.52633708      -0.01516499      -0.00000884       0.00199267
I        3.10079145       3.19450940       6.43183339      -0.00240308      -0.00010115       0.03514207
I       -0.09271532       3.19497269       9.28514994       0.01052357      -0.00000920      -0.01076697
I        3.12369133       0.02095929       9.75131871      -0.00326991       0.01427784      -0.00021897
Cs      -0.12790865       6.68551212      -0.10995932      -0.00221066      -0.01215553      -0.00020192
Pb       3.27675240       9.58497217       3.27163341       0.00256743       0.00000398       0.00181930
I        3.30811512       9.58442019       0.07480258       0.00998770      -0.00010313       0.03112815
I        0.07821645       9.58502592       3.22129186       0.03064720       0.00001310      -0.00807041
I        3.38549494       6.36552924       3.38281273      -0.00166876      -0.00812349      -0.00124901
Cs       0.06278412       6.64887274       6.63359579       0.00057933      -0.00295059       0.00372118
Pb       3.22280217       9.58502181       9.67039525       0.00268341       0.00000922       0.00087858
I        3.20138893       9.58557407       6.48216616      -0.02138003       0.00010154      -0.02232423
I       -0.00290526       9.58503896       9.65927906       0.03236653       0.00000685       0.00791616
I        3.12361703       6.36907398       9.75020358      -0.00328564      -0.01427243      -0.00040152
Cs       6.62859199      -0.22825313       0.04369595       0.00219352       0.00759287      -0.00052166
Pb       9.56530195       3.19502191       3.07085733       0.00435659       0.00000363      -0.01862165
I        9.39927526       3.19509053      -0.09730092      -0.00209986       0.00001828       0.00803225
I        6.45799431       3.19507409       2.99213136       0.04509886       0.00002555      -0.01800516
I        9.74584040       0.01743749       3.14171007      -0.00051107       0.01263242      -0.00185356
Cs       6.41019516       0.05326072       6.40546444      -0.00117769      -0.00105269      -0.00237166
Pb       9.48217077       3.19500607       9.47237220       0.01766636       0.00000050       0.02046023
I        9.34102389       3.19494070       6.26795106      -0.00628519      -0.00001000      -0.00998824
I        6.26479669       3.19504697       9.52615592      -0.01081871       0.00001149       0.01387379
I        9.54827778      -0.00792988       9.54377528       0.00375114       0.02604393       0.00313769
Cs       6.62877372       6.61829355       0.04368883       0.00222687      -0.00759141      -0.00052828
Pb       9.66906532       9.58501631       3.22543992       0.00164185       0.00000121       0.00236221
I        9.58273235       9.58497515      -0.00073939      -0.00655422      -0.00000628       0.03252013
I        6.48440541       9.58495796       3.29646048      -0.02176211      -0.00001866      -0.00306142
I        9.74585009       6.37259683       3.14180845      -0.00048782      -0.01263019      -0.00183956
Cs       6.41019152       6.33672354       6.40557083      -0.00118064       0.00105028      -0.00235658
Pb       9.56498987       9.58501549       9.56629138       0.00365377       0.00000231       0.00425724
I        9.70859181       9.58506743       6.40319814       0.01549046       0.00001206      -0.03410309
I        6.39953050       9.58496621       9.60555041      -0.03344523      -0.00000873      -0.00457648
I        9.54833432       6.39795225       9.54367608       0.00376459      -0.02604042       0.00312381
