
  ___ ___ ___ _ _ _  
 |   |   |_  | | | | 
 | | | | | . | | | | 
 |__ |  _|___|_____|  25.7.0
 |___|_|             

User:   buyer@DESKTOP-3EQA59H
Date:   Thu Jul 16 02:13:49 2026
Arch:   x86_64
Pid:    3331
CWD:    /mnt/c/Users/Buyer/dft-si
Python: 3.11.15
gpaw:   /home/buyer/miniconda3/envs/dft/lib/python3.11/site-packages/gpaw
_gpaw:  /home/buyer/miniconda3/envs/dft/lib/python3.11/site-packages/
        _gpaw.cpython-311-x86_64-linux-gnu.so
ase:    /home/buyer/miniconda3/envs/dft/lib/python3.11/site-packages/ase (version 3.29.0)
numpy:  /home/buyer/miniconda3/envs/dft/lib/python3.11/site-packages/numpy (version 2.4.6)
scipy:  /home/buyer/miniconda3/envs/dft/lib/python3.11/site-packages/scipy (version 1.17.1)
libxc:  7.0.0
units:  Angstrom and eV
cores: 1
OpenMP: True
OMP_NUM_THREADS: 1

Input parameters:
  kpts: [2 2 2]
  mode: {ecut: 600.0,
         name: pw}
  xc: PBE

System changes: positions, numbers, cell, pbc, initial_charges, initial_magmoms 

Initialize ...

species:
  Cs:
    name: Caesium
    id: fa822afd343f47335d508b9ee4f394c3
    Z: 55.0
    valence: 9
    core: 46
    charge: 0.0
    file: /home/buyer/miniconda3/envs/dft/lib/python3.11/site-packages/gpaw_data/setups/Cs.PBE.gz
    compensation charges: {type: gauss,
                           rc: 0.33,
                           lmax: 2}
    cutoffs: {filter: 2.06,
              core: 2.51}
    projectors:
      #              energy  rcut
      - 5s(2.00)   -26.706   1.164
      - 6s(1.00)    -2.085   1.164
      - 5p(6.00)   -13.523   1.058
      -  p          13.688   1.058
      -  d           0.000   1.058
  
    # Using partial waves for Cs as LCAO basis

  Pb:
    name: Lead
    id: 66e73b13d76dc837202bcdb13fee58e6
    Z: 82.0
    valence: 14
    core: 68
    charge: 0.0
    file: /home/buyer/miniconda3/envs/dft/lib/python3.11/site-packages/gpaw_data/setups/Pb.PBE.gz
    compensation charges: {type: gauss,
                           rc: 0.38,
                           lmax: 2}
    cutoffs: {filter: 2.36,
              core: 2.43}
    projectors:
      #              energy  rcut
      - 6s(2.00)   -11.969   1.259
      - 6p(2.00)    -3.506   1.275
      - 5d(10.00)   -21.211   1.217
      -  s          15.243   1.259
      -  p          23.705   1.275
      -  d           6.001   1.217
  
    # Using partial waves for Pb as LCAO basis

  I:
    name: Iodine
    id: 91405a398e4dfe788ff04f57531604ec
    Z: 53.0
    valence: 7
    core: 46
    charge: 0.0
    file: /home/buyer/miniconda3/envs/dft/lib/python3.11/site-packages/gpaw_data/setups/I.PBE.gz
    compensation charges: {type: gauss,
                           rc: 0.37,
                           lmax: 2}
    cutoffs: {filter: 2.06,
              core: 2.90}
    projectors:
      #              energy  rcut
      - 5s(2.00)   -17.382   1.164
      - 5p(5.00)    -7.088   1.164
      -  s           9.829   1.164
      -  p          20.123   1.164
      -  d           0.000   1.164
  
    # Using partial waves for I as LCAO basis

Reference energy: -10684034.619125  # eV

Spin-paired calculation

Convergence criteria:
 Maximum [total energy] change in last 3 cyles: 0.0005 eV / valence electron
 Maximum integral of absolute [dens]ity change: 0.0001 electrons / valence electron
 Maximum integral of absolute [eigenst]ate change: 4e-08 eV^2 / valence electron
 Maximum number of scf [iter]ations: 333
 (Square brackets indicate name in SCF output, whereas a 'c' in
 the SCF output indicates the quantity has converged.)

Symmetries present (total): 1

  ( 1  0  0)
  ( 0  1  0)
  ( 0  0  1)

8 k-points: 2 x 2 x 2 Monkhorst-Pack grid
4 k-points in the irreducible part of the Brillouin zone
       k-points in crystal coordinates                weights
   0:     0.25000000   -0.25000000   -0.25000000          2/8
   1:     0.25000000   -0.25000000    0.25000000          2/8
   2:     0.25000000    0.25000000   -0.25000000          2/8
   3:     0.25000000    0.25000000    0.25000000          2/8

Wave functions: Plane wave expansion
  Cutoff energy: 600.000 eV
  Number of coefficients (min, max): 69650, 69650
  Pulay-stress correction: 0.000000 eV/Ang^3 (de/decut=0.000000)
  Using FFTW library
  ScaLapack parameters: grid=1x1, blocksize=None
  Wavefunction extrapolation:
    Improved wavefunction reuse through dual PAW basis 

Occupation numbers: Fermi-Dirac:
  width: 0.1000  # eV
 

Eigensolver
   Davidson(niter=2) 

Densities:
  Coarse grid: 75*75*75 grid
  Fine grid: 150*150*150 grid
  Total Charge: 0.000000 

Density mixing:
  Method: separate
  Backend: pulay
  Linear mixing parameter: 0.05
  old densities: 5
  Damping of long wavelength oscillations: 50 

Hamiltonian:
  XC and Coulomb potentials evaluated on a 150*150*150 grid
  Using the PBE Exchange-Correlation functional
  External potential:
    NoExternalPotential
 

XC parameters: PBE with 2 nearest neighbor stencil

Memory estimate:
  Process memory now: 396.62 MiB
  Calculator: 1460.82 MiB
    Density: 227.10 MiB
      Arrays: 83.68 MiB
      Localized functions: 111.23 MiB
      Mixer: 32.19 MiB
    Hamiltonian: 57.72 MiB
      Arrays: 54.72 MiB
      XC: 0.00 MiB
      Poisson: 0.00 MiB
      vbar: 3.01 MiB
    Wavefunctions: 1175.99 MiB
      Arrays psit_nG: 867.22 MiB
      Eigensolver: 228.48 MiB
      Projections: 6.81 MiB
      Projectors: 53.14 MiB
      PW-descriptor: 20.34 MiB

Total number of cores used: 1

Number of atoms: 39
Number of atomic orbitals: 204
Number of bands in calculation: 204
Number of valence electrons: 345
Bands to converge: occupied

... initialized

Initializing position-dependent things.

Density initialized from atomic densities
Creating initial wave functions:
  204 bands from LCAO basis set

         .------------------------------.  
        /|                              |  
       / |                              |  
      /  |                              |  
     /   |                      I       |  
    /    |                              |  
   /     |     Pb      I      Pb      I |  
  /      |                              |  
 *       |   I              I           |  
 |       |                              |  
 | I     | Pb  I  I       Pb  I         |  
 |       |                              |  
 |   Cs  I          Cs          I       |  
 |       |                              |  
 |       | I   Pb      I  I   Pb      I |  
 |       |                              |  
 Cs      .---I--Cs-------Cs-I----------Cs  
 |      /                              /   
 |     /   Pb  I  I       Pb  I       /    
 |    /                              /     
 |   / I I           Cs             /s     
 |  /                              /       
 | /                      I       /        
 |/                              /         
 *------------------------------*          

Atomic positions and initial magnetic moments

Positions:
   0 Cs    -0.210009   -0.210009    0.000000    ( 0.0000,  0.0000,  0.0000)
   1 Pb     3.194980    3.194980    3.193352    ( 0.0000,  0.0000,  0.0000)
   2 I      1.599261    3.194980    1.530389    ( 0.0000,  0.0000,  0.0000)
   3 I      3.194960    0.003522    3.060778    ( 0.0000,  0.0000,  0.0000)
   4 Cs     0.052300    0.052300    6.390000    ( 0.0000,  0.0000,  0.0000)
   5 Pb     3.194980    3.194980    9.586648    ( 0.0000,  0.0000,  0.0000)
   6 I      3.194958    3.194958    6.390000    ( 0.0000,  0.0000,  0.0000)
   7 I      0.003522    3.194960    9.719222    ( 0.0000,  0.0000,  0.0000)
   8 I      3.194960    0.003522    9.719222    ( 0.0000,  0.0000,  0.0000)
   9 Cs    -0.210002    6.600012    0.000000    ( 0.0000,  0.0000,  0.0000)
  10 Pb     3.194980    9.585021    3.185735    ( 0.0000,  0.0000,  0.0000)
  11 I      3.194957    9.585033   -0.000000    ( 0.0000,  0.0000,  0.0000)
  12 I     -0.004603    9.585038    3.194314    ( 0.0000,  0.0000,  0.0000)
  13 I      3.194962    6.386488    3.060797    ( 0.0000,  0.0000,  0.0000)
  14 Cs     0.052300    6.337698    6.390000    ( 0.0000,  0.0000,  0.0000)
  15 Pb     3.194980    9.585021    9.594265    ( 0.0000,  0.0000,  0.0000)
  16 I      3.194962    9.585045    6.390000    ( 0.0000,  0.0000,  0.0000)
  17 I     -0.004603    9.585038    9.585686    ( 0.0000,  0.0000,  0.0000)
  18 I      3.194962    6.386488    9.719203    ( 0.0000,  0.0000,  0.0000)
  19 Cs     6.600012   -0.210002    0.000000    ( 0.0000,  0.0000,  0.0000)
  20 Pb     9.585021    3.194980    3.185735    ( 0.0000,  0.0000,  0.0000)
  21 I      9.585033    3.194957   -0.000000    ( 0.0000,  0.0000,  0.0000)
  22 I      6.386488    3.194962    3.060797    ( 0.0000,  0.0000,  0.0000)
  23 I      9.585038   -0.004603    3.194314    ( 0.0000,  0.0000,  0.0000)
  24 Cs     6.337698    0.052300    6.390000    ( 0.0000,  0.0000,  0.0000)
  25 Pb     9.585021    3.194980    9.594265    ( 0.0000,  0.0000,  0.0000)
  26 I      9.585045    3.194962    6.390000    ( 0.0000,  0.0000,  0.0000)
  27 I      6.386488    3.194962    9.719203    ( 0.0000,  0.0000,  0.0000)
  28 I      9.585038   -0.004603    9.585686    ( 0.0000,  0.0000,  0.0000)
  29 Cs     6.600005    6.600005   -0.000000    ( 0.0000,  0.0000,  0.0000)
  30 Pb     9.585019    9.585019    3.230562    ( 0.0000,  0.0000,  0.0000)
  31 I      9.585033    9.585033    0.000000    ( 0.0000,  0.0000,  0.0000)
  32 I      6.394602    9.585036    3.194316    ( 0.0000,  0.0000,  0.0000)
  33 I      9.585036    6.394602    3.194316    ( 0.0000,  0.0000,  0.0000)
  34 Cs     6.337698    6.337698    6.390000    ( 0.0000,  0.0000,  0.0000)
  35 Pb     9.585019    9.585019    9.549438    ( 0.0000,  0.0000,  0.0000)
  36 I      9.585040    9.585040    6.390000    ( 0.0000,  0.0000,  0.0000)
  37 I      6.394602    9.585036    9.585684    ( 0.0000,  0.0000,  0.0000)
  38 I      9.585036    6.394602    9.585684    ( 0.0000,  0.0000,  0.0000)

Unit cell:
           periodic     x           y           z      points  spacing
  1. axis:    yes   12.780000    0.000000    0.000000    75     0.1704
  2. axis:    yes    0.000000   12.780000    0.000000    75     0.1704
  3. axis:    yes    0.000000    0.000000   12.780000    75     0.1704

  Lengths:  12.780000  12.780000  12.780000
  Angles:   90.000000  90.000000  90.000000

Effective grid spacing dv^(1/3) = 0.1704

     iter     time        total  log10-change:
                         energy   eigst   dens
iter:   1 02:16:00  -110.357187
iter:   2 02:16:51  -109.853605   -1.37  -1.30
iter:   3 02:17:43  -107.741500   -2.02  -1.34
iter:   4 02:18:35  -107.324781   -2.00  -1.53
iter:   5 02:19:28  -107.292638   -2.76  -1.72
iter:   6 02:20:20  -107.260825c  -3.63  -2.08
iter:   7 02:21:13  -107.189709c  -3.43  -2.19
iter:   8 02:22:04  -107.197613c  -4.29  -2.42
iter:   9 02:22:56  -107.194606c  -4.46  -2.62
iter:  10 02:23:50  -107.198904c  -4.82  -2.80
iter:  11 02:24:42  -107.197076c  -5.28  -3.03
iter:  12 02:25:34  -107.197414c  -6.37  -3.14
iter:  13 02:26:26  -107.196795c  -6.56  -3.15
iter:  14 02:27:18  -107.196258c  -6.42  -3.18
iter:  15 02:28:09  -107.197416c  -5.50  -3.26
iter:  16 02:29:03  -107.197171c  -6.53  -3.57
iter:  17 02:29:56  -107.196633c  -6.67  -3.58
iter:  18 02:30:49  -107.196638c  -7.28  -3.67
iter:  19 02:31:41  -107.196786c  -6.76  -3.74
iter:  20 02:32:39  -107.196702c  -7.67c -4.10c

Converged after 20 iterations.

Dipole moment: (37.091211, 37.484021, -1.528853) |e|*Ang

Energy contributions relative to reference atoms: (reference = -10684034.619125)

Kinetic:       +236.508504
Potential:     -236.295410
External:        +0.000000
XC:            -106.290107
Entropy (-ST):   -0.214117
Local:           -1.012629
SIC:             +0.000000
--------------------------
Free energy:   -107.303760
Extrapolated:  -107.196702

Showing only first 2 kpts
 Kpt  Band  Eigenvalues  Occupancy
  0   170      1.15641    2.00000
  0   171      1.67750    2.00000
  0   172      3.74530    0.85912
  0   173      4.05442    0.06618

  1   170      1.15633    2.00000
  1   171      1.68419    2.00000
  1   172      3.74971    0.83759
  1   173      4.05956    0.06297


Fermi level: 3.71694

Gap: 2.061 eV
Transition (v -> c):
  (s=0, k=3, n=171, [0.25, 0.25, 0.25]) -> (s=0, k=0, n=172, [0.25, -0.25, -0.25])
Direct/indirect transitions are different
Direct gap: 2.066 eV
Transition at: (s=0, k=3, n=171, [0.25, 0.25, 0.25])

Forces in eV/Ang:
  0 Cs    0.00443   -0.05706   -0.05475
  1 Pb    7.64325    0.00004    7.84393
  2 I    -8.16996    0.00004   -8.50945
  3 I     0.05233   -0.23908    0.11649
  4 Cs    0.01235   -0.07349    0.07024
  5 Pb    0.00498    0.00002   -0.25318
  6 I    -0.20996    0.00002    0.77993
  7 I     0.00555    0.00001   -0.00954
  8 I    -0.00447    0.02260    0.01436
  9 Cs    0.00443    0.05706   -0.05475
 10 Pb    0.01421   -0.00001   -0.00879
 11 I    -0.00536   -0.00002   -0.01962
 12 I    -0.01241   -0.00001   -0.00648
 13 I     0.05232    0.23903    0.11649
 14 Cs    0.01235    0.07349    0.07024
 15 Pb    0.00316   -0.00002    0.00971
 16 I    -0.01314   -0.00000    0.01475
 17 I     0.00188   -0.00001    0.00496
 18 I    -0.00447   -0.02260    0.01434
 19 Cs   -0.00528    0.00104    0.01111
 20 Pb   -0.24823    0.00002   -0.03959
 21 I     0.06354    0.00001    0.02663
 22 I     0.61994    0.00002   -0.12282
 23 I     0.07385    0.03237   -0.00617
 24 Cs   -0.01193    0.00299   -0.01404
 25 Pb    0.02303    0.00002    0.02235
 26 I     0.04395    0.00001   -0.02002
 27 I    -0.01811    0.00001    0.00874
 28 I     0.00478    0.00579    0.00787
 29 Cs   -0.00527   -0.00103    0.01111
 30 Pb   -0.00498   -0.00003   -0.01655
 31 I     0.00103   -0.00002   -0.00158
 32 I     0.00941   -0.00001   -0.01490
 33 I     0.07384   -0.03237   -0.00617
 34 Cs   -0.01193   -0.00299   -0.01404
 35 Pb   -0.00067   -0.00002    0.01585
 36 I     0.00713   -0.00001    0.00332
 37 I     0.00030   -0.00001    0.01066
 38 I     0.00479   -0.00579    0.00787

Timing:                              incl.     excl.
-----------------------------------------------------------
Forces:                             16.814    16.814   1.5% ||
Hamiltonian:                         2.702     0.009   0.0% |
 Atomic:                             0.930     0.002   0.0% |
  XC Correction:                     0.928     0.928   0.1% |
 Calculate atomic Hamiltonians:      1.108     1.108   0.1% |
 Communicate:                        0.000     0.000   0.0% |
 Initialize Hamiltonian:             0.001     0.001   0.0% |
 Poisson:                            0.012     0.012   0.0% |
 XC 3D grid:                         0.642     0.642   0.1% |
LCAO initialization:                72.771     0.084   0.0% |
 LCAO eigensolver:                   0.860     0.001   0.0% |
  Calculate projections:             0.009     0.009   0.0% |
  DenseAtomicCorrection:             0.072     0.072   0.0% |
  Distribute overlap matrix:         0.001     0.001   0.0% |
  Orbital Layouts:                   0.052     0.052   0.0% |
  Potential matrix:                  0.662     0.662   0.1% |
  Sum over cells:                    0.063     0.063   0.0% |
 LCAO to grid:                      71.375    71.375   6.2% |-|
 Set positions (LCAO WFS):           0.451     0.058   0.0% |
  Basic WFS set positions:           0.000     0.000   0.0% |
  Basis functions set positions:     0.000     0.000   0.0% |
  P tci:                             0.313     0.313   0.0% |
  ST tci:                            0.069     0.069   0.0% |
  mktci:                             0.010     0.010   0.0% |
PWDescriptor:                        0.278     0.278   0.0% |
SCF-cycle:                        1048.891     0.047   0.0% |
 Davidson:                         906.565   162.382  14.2% |-----|
  Apply H:                         145.147   141.818  12.4% |----|
   HMM T:                            3.329     3.329   0.3% |
  Subspace diag:                   183.243     0.012   0.0% |
   calc_h_matrix:                  162.845    16.732   1.5% ||
    Apply H:                       146.114   142.164  12.4% |----|
     HMM T:                          3.950     3.950   0.3% |
   diagonalize:                      3.583     3.583   0.3% |
   rotate_psi:                      16.803    16.803   1.5% ||
  calc. matrices:                  369.206    76.618   6.7% |--|
   Apply H:                        292.588   285.910  24.9% |---------|
    HMM T:                           6.678     6.678   0.6% |
  diagonalize:                      16.908    16.908   1.5% ||
  rotate_psi:                       29.679    29.679   2.6% ||
 Density:                           89.939     0.000   0.0% |
  Atomic density matrices:           0.121     0.121   0.0% |
  Mix:                              23.083    23.083   2.0% ||
  Multipole moments:                 0.007     0.007   0.0% |
  Pseudo density:                   66.728    66.728   5.8% |-|
   Symmetrize density:               0.000     0.000   0.0% |
 Hamiltonian:                       49.578     0.171   0.0% |
  Atomic:                           17.446     0.040   0.0% |
   XC Correction:                   17.406    17.406   1.5% ||
  Calculate atomic Hamiltonians:    20.068    20.068   1.7% ||
  Communicate:                       0.000     0.000   0.0% |
  Poisson:                           0.228     0.228   0.0% |
  XC 3D grid:                       11.665    11.665   1.0% |
 Orthonormalize:                     2.762     0.001   0.0% |
  calc_s_matrix:                     0.285     0.285   0.0% |
  inverse-cholesky:                  0.056     0.056   0.0% |
  projections:                       1.859     1.859   0.2% |
  rotate_psi_s:                      0.561     0.561   0.0% |
Set symmetry:                        0.000     0.000   0.0% |
Other:                               5.845     5.845   0.5% |
-----------------------------------------------------------
Total:                                      1147.302 100.0%

Memory usage: 2.98 GiB
Date: Thu Jul 16 02:32:56 2026
