39
Lattice="12.78 0.0 0.0 0.0 12.78 0.0 0.0 0.0 13.035599999999999" Properties=species:S:1:pos:R:3:spacegroup_kinds:I:1:forces:R:3:energies:R:1 spacegroup="P m -3 m" unit_cell=conventional energy=-110.73538817746424 stress="0.00115802636323027 -2.2048223721259213e-18 -5.392696162988491e-19 -2.2048223721259213e-18 0.0025490825804352214 -1.641191008806058e-06 -5.392696162988491e-19 -1.641191008806058e-06 0.004623432491493733" free_energy=-110.73538817746424 pbc="T T T"
Cs      -0.18350700      -0.02022235      -0.16294589        0      -0.00350464       0.00371320      -0.00836323      -3.46515980
Pb       3.19500000       3.29951718       3.25246212        1      -0.00000000      -0.00093347       0.01748583      -4.17127930
I        0.03181901       3.11624771       3.26028452        2       0.00210422       0.00020212      -0.00051201      -2.07887575
I        3.19500000       3.12978969       0.03603153        2       0.00000000       0.01143665      -0.00186356      -2.09024078
Cs      -0.15939131       0.01999345       6.70201638        0      -0.01007391      -0.00479215       0.00487286      -3.46938701
Pb       3.19500000       3.18570835       9.79409139        1       0.00000000       0.00026717      -0.01665807      -4.43276586
I        3.19500000       3.14686597       6.48145037        2      -0.00000000       0.00953767       0.00627448      -2.09687075
I       -0.00083379       3.15882034       9.77817613        2       0.00269532       0.00539715       0.00138059      -2.08529706
I        3.19500000      -0.00161166       9.77165115        2       0.00000000       0.00504539      -0.00051165      -2.05917658
Cs      -0.06399115       6.40929138      -0.04242235        0       0.01310035      -0.00333309       0.00774743      -3.46973373
Pb       3.19500000       9.48546988       3.26019799        1      -0.00000000       0.00862673       0.00032587      -4.17676361
I        3.19500000       9.64381315       0.03842003        2      -0.00000000      -0.00895480      -0.00762071      -2.09372895
I        0.03224635       9.65908027       3.26655745        2      -0.00423489       0.00074256      -0.00468702      -2.07791072
I        3.19500000       6.39517410       3.26625189        2       0.00000000      -0.01307050      -0.00688254      -2.11376292
Cs      -0.02062539       6.36889994       6.55973659        0       0.00425527       0.00487290      -0.00753596      -3.47499014
Pb       3.19500000       9.59370904       9.77415251        1       0.00000000      -0.00143858       0.00387416      -4.43357130
I        3.19500000       9.63156984       6.48355710        2      -0.00000000      -0.00922102       0.00689415      -2.09099922
I       -0.00176299       9.61795753       9.77009960        2       0.00869262      -0.00475842       0.00417472      -2.08400848
I        3.19500000       6.39035738       9.78761777        2      -0.00000000      -0.00488820       0.00176825      -2.07994107
Cs       6.57350700      -0.02022235      -0.16294589        0       0.00350464       0.00371320      -0.00836323      -3.46515980
Pb       9.58500000       3.18362903       3.25861153        1      -0.00000000       0.00076852       0.00294663      -4.44205918
I        9.58500000       3.16287708       0.00033372        2      -0.00000000       0.00681902      -0.00469995      -2.10455345
I        6.35818099       3.11624771       3.26028452        2      -0.00210422       0.00020212      -0.00051201      -2.07887575
I        9.58500000      -0.00090613       3.26756391        2      -0.00000000      -0.00041102      -0.00534570      -2.05387598
Cs       6.54939131       0.01999345       6.70201638        0       0.01007391      -0.00479215       0.00487286      -3.46938701
Pb       9.58500000       3.20441808       9.77792909        1      -0.00000000       0.00333262      -0.00142107      -4.42539243
I        9.58500000       3.16006295       6.51912155        2       0.00000000       0.00945774       0.00446388      -2.10338608
I        6.39083379       3.15882034       9.77817613        2      -0.00269532       0.00539715       0.00138059      -2.08529706
I        9.58500000      -0.00252061       9.76666255        2      -0.00000000       0.01144569       0.00632148      -2.11200700
Cs       6.45399115       6.40929138      -0.04242235        0      -0.01310035      -0.00333309       0.00774743      -3.46973373
Pb       9.58500000       9.59485065       3.26593686        1      -0.00000000      -0.00091652       0.00110626      -4.44146779
I        9.58500000       9.61222450      -0.00120505        2      -0.00000000      -0.00636414       0.00294446      -2.11079157
I        6.35775365       9.65908027       3.26655745        2       0.00423489       0.00074256      -0.00468702      -2.07791072
I        9.58500000       6.38917067       3.26420262        2      -0.00000000       0.00000364      -0.00321345      -2.08113164
Cs       6.41062539       6.36889994       6.55973659        0      -0.00425527       0.00487290      -0.00753596      -3.47499014
Pb       9.58500000       9.57461798       9.76901929        1      -0.00000000      -0.00345967       0.00112370      -4.42853382
I        9.58500000       9.61853998       6.52049744        2      -0.00000000      -0.00831398      -0.00447196      -2.09557486
I        6.39176299       9.61795753       9.77009960        2      -0.00869262      -0.00475842       0.00417472      -2.08400848
I        9.58500000       6.39172905       9.77126877        2      -0.00000000      -0.01285745       0.00300475      -2.08678863
