
  ___ ___ ___ _ _ _  
 |   |   |_  | | | | 
 | | | | | . | | | | 
 |__ |  _|___|_____|  25.7.0
 |___|_|             

User:   buyer@DESKTOP-3EQA59H
Date:   Fri Jul 17 12:08:32 2026
Arch:   x86_64
Pid:    30764
CWD:    /mnt/c/Users/Buyer/dft-si
Python: 3.11.15
gpaw:   /home/buyer/miniconda3/envs/dft/lib/python3.11/site-packages/gpaw
_gpaw:  /home/buyer/miniconda3/envs/dft/lib/python3.11/site-packages/
        _gpaw.cpython-311-x86_64-linux-gnu.so
ase:    /home/buyer/miniconda3/envs/dft/lib/python3.11/site-packages/ase (version 3.29.0)
numpy:  /home/buyer/miniconda3/envs/dft/lib/python3.11/site-packages/numpy (version 2.4.6)
scipy:  /home/buyer/miniconda3/envs/dft/lib/python3.11/site-packages/scipy (version 1.17.1)
libxc:  7.0.0
units:  Angstrom and eV
cores: 1
OpenMP: True
OMP_NUM_THREADS: 1

Input parameters:
  kpts: [2 2 2]
  mode: {ecut: 600.0,
         name: pw}
  xc: PBE

System changes: positions, numbers, cell, pbc, initial_charges, initial_magmoms 

Initialize ...

species:
  Cs:
    name: Caesium
    id: fa822afd343f47335d508b9ee4f394c3
    Z: 55.0
    valence: 9
    core: 46
    charge: 0.0
    file: /home/buyer/miniconda3/envs/dft/lib/python3.11/site-packages/gpaw_data/setups/Cs.PBE.gz
    compensation charges: {type: gauss,
                           rc: 0.33,
                           lmax: 2}
    cutoffs: {filter: 2.06,
              core: 2.51}
    projectors:
      #              energy  rcut
      - 5s(2.00)   -26.706   1.164
      - 6s(1.00)    -2.085   1.164
      - 5p(6.00)   -13.523   1.058
      -  p          13.688   1.058
      -  d           0.000   1.058
  
    # Using partial waves for Cs as LCAO basis

  Pb:
    name: Lead
    id: 66e73b13d76dc837202bcdb13fee58e6
    Z: 82.0
    valence: 14
    core: 68
    charge: 0.0
    file: /home/buyer/miniconda3/envs/dft/lib/python3.11/site-packages/gpaw_data/setups/Pb.PBE.gz
    compensation charges: {type: gauss,
                           rc: 0.38,
                           lmax: 2}
    cutoffs: {filter: 2.36,
              core: 2.43}
    projectors:
      #              energy  rcut
      - 6s(2.00)   -11.969   1.259
      - 6p(2.00)    -3.506   1.275
      - 5d(10.00)   -21.211   1.217
      -  s          15.243   1.259
      -  p          23.705   1.275
      -  d           6.001   1.217
  
    # Using partial waves for Pb as LCAO basis

  I:
    name: Iodine
    id: 91405a398e4dfe788ff04f57531604ec
    Z: 53.0
    valence: 7
    core: 46
    charge: 0.0
    file: /home/buyer/miniconda3/envs/dft/lib/python3.11/site-packages/gpaw_data/setups/I.PBE.gz
    compensation charges: {type: gauss,
                           rc: 0.37,
                           lmax: 2}
    cutoffs: {filter: 2.06,
              core: 2.90}
    projectors:
      #              energy  rcut
      - 5s(2.00)   -17.382   1.164
      - 5p(5.00)    -7.088   1.164
      -  s           9.829   1.164
      -  p          20.123   1.164
      -  d           0.000   1.164
  
    # Using partial waves for I as LCAO basis

Reference energy: -10684034.619125  # eV

Spin-paired calculation

Convergence criteria:
 Maximum [total energy] change in last 3 cyles: 0.0005 eV / valence electron
 Maximum integral of absolute [dens]ity change: 0.0001 electrons / valence electron
 Maximum integral of absolute [eigenst]ate change: 4e-08 eV^2 / valence electron
 Maximum number of scf [iter]ations: 333
 (Square brackets indicate name in SCF output, whereas a 'c' in
 the SCF output indicates the quantity has converged.)

Symmetries present (total): 4

  ( 1  0  0)  ( 1  0  0)  ( 0  1  0)  ( 0  1  0)
  ( 0  1  0)  ( 0  1  0)  ( 1  0  0)  ( 1  0  0)
  ( 0  0  1)  ( 0  0 -1)  ( 0  0  1)  ( 0  0 -1)

8 k-points: 2 x 2 x 2 Monkhorst-Pack grid
2 k-points in the irreducible part of the Brillouin zone
       k-points in crystal coordinates                weights
   0:     0.25000000   -0.25000000    0.25000000          4/8
   1:     0.25000000    0.25000000    0.25000000          4/8

Wave functions: Plane wave expansion
  Cutoff energy: 600.000 eV
  Number of coefficients (min, max): 71053, 71053
  Pulay-stress correction: 0.000000 eV/Ang^3 (de/decut=0.000000)
  Using FFTW library
  ScaLapack parameters: grid=1x1, blocksize=None
  Wavefunction extrapolation:
    Improved wavefunction reuse through dual PAW basis 

Occupation numbers: Fermi-Dirac:
  width: 0.1000  # eV
 

Eigensolver
   Davidson(niter=2) 

Densities:
  Coarse grid: 75*75*75 grid
  Fine grid: 150*150*150 grid
  Total Charge: 0.000000 

Density mixing:
  Method: separate
  Backend: pulay
  Linear mixing parameter: 0.05
  old densities: 5
  Damping of long wavelength oscillations: 50 

Hamiltonian:
  XC and Coulomb potentials evaluated on a 150*150*150 grid
  Using the PBE Exchange-Correlation functional
  External potential:
    NoExternalPotential
 

XC parameters: PBE with 2 nearest neighbor stencil

Memory estimate:
  Process memory now: 379.33 MiB
  Calculator: 1011.19 MiB
    Density: 229.34 MiB
      Arrays: 83.68 MiB
      Localized functions: 113.46 MiB
      Mixer: 32.19 MiB
    Hamiltonian: 57.78 MiB
      Arrays: 54.72 MiB
      XC: 0.00 MiB
      Poisson: 0.00 MiB
      vbar: 3.07 MiB
    Wavefunctions: 724.07 MiB
      Arrays psit_nG: 442.35 MiB
      Eigensolver: 232.95 MiB
      Projections: 3.41 MiB
      Projectors: 27.10 MiB
      PW-descriptor: 18.26 MiB

Total number of cores used: 1

Number of atoms: 39
Number of atomic orbitals: 204
Number of bands in calculation: 204
Number of valence electrons: 345
Bands to converge: occupied

... initialized

Initializing position-dependent things.

Density initialized from atomic densities
Creating initial wave functions:
  204 bands from LCAO basis set

         .------------------------------.  
        /|                              |  
       / |                              |  
      /  |                              |  
     /   |                      I       |  
    /    |                              |  
   /     |     Pb      I      Pb      I |  
  /      |                              |  
 *       |   I           Cs I           Cs 
 |       |                              |  
 | I     | Pb  I  I       Pb  I         |  
 |       |                              |  
 |       I           Cs         I   Cs  |  
 |       |                              |  
 |       | I   Pb      I  I   Pb      I |  
 |       |                              |  
 |       .---I-----------Cs-I----------Cs  
 |      /                              /   
 | I   /   Pb  I  I       Pb  I       /    
 |    /                              /     
 |   /   I           Cs             /s     
 |  /                              /       
 | /                      I       /        
 |/                              /         
 *------------------------------*          

Atomic positions and initial magnetic moments

Positions:
   0 Cs    -0.168838   -0.168838    0.000000    ( 0.0000,  0.0000,  0.0000)
   1 Pb     3.195000    3.195000    3.414498    ( 0.0000,  0.0000,  0.0000)
   2 I      0.030807    3.195000    3.180769    ( 0.0000,  0.0000,  0.0000)
   3 I      3.195000    0.030807    3.180769    ( 0.0000,  0.0000,  0.0000)
   4 Cs    -0.053271   -0.053271    6.517800    ( 0.0000,  0.0000,  0.0000)
   5 Pb     3.195000    3.195000    9.621102    ( 0.0000,  0.0000,  0.0000)
   6 I      3.195000    3.195000    6.517800    ( 0.0000,  0.0000,  0.0000)
   7 I      0.030807    3.195000    9.854831    ( 0.0000,  0.0000,  0.0000)
   8 I      3.195000    0.030807    9.854831    ( 0.0000,  0.0000,  0.0000)
   9 Cs    -0.168838    6.558838    0.000000    ( 0.0000,  0.0000,  0.0000)
  10 Pb     3.195000    9.585000    3.249685    ( 0.0000,  0.0000,  0.0000)
  11 I      3.195000    9.585000    0.000000    ( 0.0000,  0.0000,  0.0000)
  12 I     -0.002866    9.585000    3.220028    ( 0.0000,  0.0000,  0.0000)
  13 I      3.195000    6.359193    3.180769    ( 0.0000,  0.0000,  0.0000)
  14 Cs    -0.053271    6.443271    6.517800    ( 0.0000,  0.0000,  0.0000)
  15 Pb     3.195000    9.585000    9.785915    ( 0.0000,  0.0000,  0.0000)
  16 I      3.195000    9.585000    6.517800    ( 0.0000,  0.0000,  0.0000)
  17 I     -0.002866    9.585000    9.815572    ( 0.0000,  0.0000,  0.0000)
  18 I      3.195000    6.359193    9.854831    ( 0.0000,  0.0000,  0.0000)
  19 Cs     6.558838   -0.168838    0.000000    ( 0.0000,  0.0000,  0.0000)
  20 Pb     9.585000    3.195000    3.249685    ( 0.0000,  0.0000,  0.0000)
  21 I      9.585000    3.195000    0.000000    ( 0.0000,  0.0000,  0.0000)
  22 I      6.359193    3.195000    3.180769    ( 0.0000,  0.0000,  0.0000)
  23 I      9.585000   -0.002866    3.220028    ( 0.0000,  0.0000,  0.0000)
  24 Cs     6.443271   -0.053271    6.517800    ( 0.0000,  0.0000,  0.0000)
  25 Pb     9.585000    3.195000    9.785915    ( 0.0000,  0.0000,  0.0000)
  26 I      9.585000    3.195000    6.517800    ( 0.0000,  0.0000,  0.0000)
  27 I      6.359193    3.195000    9.854831    ( 0.0000,  0.0000,  0.0000)
  28 I      9.585000   -0.002866    9.815572    ( 0.0000,  0.0000,  0.0000)
  29 Cs     6.558838    6.558838    0.000000    ( 0.0000,  0.0000,  0.0000)
  30 Pb     9.585000    9.585000    3.271172    ( 0.0000,  0.0000,  0.0000)
  31 I      9.585000    9.585000    0.000000    ( 0.0000,  0.0000,  0.0000)
  32 I      6.392866    9.585000    3.220028    ( 0.0000,  0.0000,  0.0000)
  33 I      9.585000    6.392866    3.220028    ( 0.0000,  0.0000,  0.0000)
  34 Cs     6.443271    6.443271    6.517800    ( 0.0000,  0.0000,  0.0000)
  35 Pb     9.585000    9.585000    9.764428    ( 0.0000,  0.0000,  0.0000)
  36 I      9.585000    9.585000    6.517800    ( 0.0000,  0.0000,  0.0000)
  37 I      6.392866    9.585000    9.815572    ( 0.0000,  0.0000,  0.0000)
  38 I      9.585000    6.392866    9.815572    ( 0.0000,  0.0000,  0.0000)

Unit cell:
           periodic     x           y           z      points  spacing
  1. axis:    yes   12.780000    0.000000    0.000000    75     0.1704
  2. axis:    yes    0.000000   12.780000    0.000000    75     0.1704
  3. axis:    yes    0.000000    0.000000   13.035600    75     0.1738

  Lengths:  12.780000  12.780000  13.035600
  Angles:   90.000000  90.000000  90.000000

Effective grid spacing dv^(1/3) = 0.1715

     iter     time        total  log10-change:
                         energy   eigst   dens
iter:   1 12:09:41  -113.596826
iter:   2 12:10:25  -113.032262   -1.42  -1.29
iter:   3 12:11:06  -110.741188   -2.01  -1.33
iter:   4 12:11:46  -110.377730   -1.99  -1.53
iter:   5 12:12:48  -110.307858   -2.91  -1.72
iter:   6 12:13:25  -110.266097c  -3.59  -2.09
iter:   7 12:13:54  -110.211213c  -3.71  -2.32
iter:   8 12:14:22  -110.213984c  -4.74  -2.45
iter:   9 12:14:49  -110.212794c  -4.66  -2.63
iter:  10 12:15:16  -110.218042c  -4.97  -2.88
iter:  11 12:15:45  -110.217213c  -6.08  -3.19
iter:  12 12:16:13  -110.216975c  -6.79  -3.22
iter:  13 12:16:57  -110.216832c  -7.07  -3.23
iter:  14 12:17:33  -110.217254c  -6.80  -3.24
iter:  15 12:18:14  -110.217671c  -6.38  -3.27
iter:  16 12:18:47  -110.216740c  -6.37  -3.37
iter:  17 12:19:16  -110.216769c  -6.53  -3.55
iter:  18 12:19:44  -110.216921c  -7.47c -3.51
iter:  19 12:20:34  -110.217294c  -6.65  -3.54
iter:  20 12:21:21  -110.217273c  -6.69  -3.78
iter:  21 12:22:01  -110.217091c  -7.05  -4.03c
iter:  22 12:22:55  -110.216846c  -7.40c -4.18c

Converged after 22 iterations.

Dipole moment: (55.792204, 55.792204, -0.000000) |e|*Ang

Energy contributions relative to reference atoms: (reference = -10684034.619125)

Kinetic:       +183.829342
Potential:     -193.086641
External:        +0.000000
XC:             -99.905479
Entropy (-ST):   -0.205506
Local:           -0.951314
SIC:             +0.000000
--------------------------
Free energy:   -110.319599
Extrapolated:  -110.216846

Showing all kpts
 Kpt  Band  Eigenvalues  Occupancy
  0   170      0.92128    2.00000
  0   171      1.04142    2.00000
  0   172      3.52068    0.86815
  0   173      3.83562    0.06368

  1   170      0.92128    2.00000
  1   171      1.04142    2.00000
  1   172      3.52068    0.86815
  1   173      3.83562    0.06368


Fermi level: 3.49415

Gap: 2.479 eV
Transition (v -> c):
  (s=0, k=0, n=171, [0.25, -0.25, 0.25]) -> (s=0, k=1, n=172, [0.25, 0.25, 0.25])
Direct/indirect transitions are different
Direct gap: 2.479 eV
Transition at: (s=0, k=0, n=171, [0.25, -0.25, 0.25])
Timing:                              incl.     excl.
-----------------------------------------------------------
Hamiltonian:                         2.984     0.010   0.0% |
 Atomic:                             0.941     0.002   0.0% |
  XC Correction:                     0.939     0.939   0.0% |
 Calculate atomic Hamiltonians:      1.265     1.265   0.0% |
 Communicate:                        0.000     0.000   0.0% |
 Initialize Hamiltonian:             0.001     0.001   0.0% |
 Poisson:                            0.012     0.012   0.0% |
 XC 3D grid:                         0.755     0.755   0.0% |
LCAO initialization:                35.806     0.086   0.0% |
 LCAO eigensolver:                   0.767     0.000   0.0% |
  Calculate projections:             0.019     0.019   0.0% |
  DenseAtomicCorrection:             0.007     0.007   0.0% |
  Distribute overlap matrix:         0.001     0.001   0.0% |
  Orbital Layouts:                   0.030     0.030   0.0% |
  Potential matrix:                  0.670     0.670   0.0% |
  Sum over cells:                    0.041     0.041   0.0% |
 LCAO to grid:                      34.348    34.348   0.6% |
 Set positions (LCAO WFS):           0.605     0.327   0.0% |
  Basic WFS set positions:           0.002     0.002   0.0% |
  Basis functions set positions:     0.000     0.000   0.0% |
  P tci:                             0.203     0.203   0.0% |
  ST tci:                            0.062     0.062   0.0% |
  mktci:                             0.011     0.011   0.0% |
PWDescriptor:                        0.211     0.211   0.0% |
SCF-cycle:                         817.727     0.061   0.0% |
 Davidson:                         671.432   158.432   2.8% ||
  Apply H:                          87.453    85.297   1.5% ||
   HMM T:                            2.156     2.156   0.0% |
  Subspace diag:                   115.694     0.006   0.0% |
   calc_h_matrix:                   98.056    11.534   0.2% |
    Apply H:                        86.523    84.257   1.5% ||
     HMM T:                          2.266     2.266   0.0% |
   diagonalize:                      5.551     5.551   0.1% |
   rotate_psi:                      12.080    12.080   0.2% |
  calc. matrices:                  248.133    69.442   1.2% |
   Apply H:                        178.691   174.100   3.1% ||
    HMM T:                           4.592     4.592   0.1% |
  diagonalize:                      40.504    40.504   0.7% |
  rotate_psi:                       21.216    21.216   0.4% |
 Density:                           77.130     0.000   0.0% |
  Atomic density matrices:           0.100     0.100   0.0% |
  Mix:                              32.727    32.727   0.6% |
  Multipole moments:                 0.009     0.009   0.0% |
  Pseudo density:                   44.294    42.899   0.8% |
   Symmetrize density:               1.395     1.395   0.0% |
 Hamiltonian:                       67.814     0.202   0.0% |
  Atomic:                           19.756     0.050   0.0% |
   XC Correction:                   19.707    19.707   0.4% |
  Calculate atomic Hamiltonians:    33.063    33.063   0.6% |
  Communicate:                       0.000     0.000   0.0% |
  Poisson:                           0.261     0.261   0.0% |
  XC 3D grid:                       14.532    14.532   0.3% |
 Orthonormalize:                     1.292     0.000   0.0% |
  calc_s_matrix:                     0.187     0.187   0.0% |
  inverse-cholesky:                  0.004     0.004   0.0% |
  projections:                       0.771     0.771   0.0% |
  rotate_psi_s:                      0.329     0.329   0.0% |
Set symmetry:                        0.001     0.001   0.0% |
Other:                            4710.437  4710.437  84.6% |---------------------------------|
-----------------------------------------------------------
Total:                                      5567.167 100.0%

Memory usage: 10.00 GiB
Date: Fri Jul 17 13:41:20 2026
