
  ___ ___ ___ _ _ _  
 |   |   |_  | | | | 
 | | | | | . | | | | 
 |__ |  _|___|_____|  25.7.0
 |___|_|             

User:   buyer@DESKTOP-3EQA59H
Date:   Fri Jul 17 12:44:50 2026
Arch:   x86_64
Pid:    30764
CWD:    /mnt/c/Users/Buyer/dft-si
Python: 3.11.15
gpaw:   /home/buyer/miniconda3/envs/dft/lib/python3.11/site-packages/gpaw
_gpaw:  /home/buyer/miniconda3/envs/dft/lib/python3.11/site-packages/
        _gpaw.cpython-311-x86_64-linux-gnu.so
ase:    /home/buyer/miniconda3/envs/dft/lib/python3.11/site-packages/ase (version 3.29.0)
numpy:  /home/buyer/miniconda3/envs/dft/lib/python3.11/site-packages/numpy (version 2.4.6)
scipy:  /home/buyer/miniconda3/envs/dft/lib/python3.11/site-packages/scipy (version 1.17.1)
libxc:  7.0.0
units:  Angstrom and eV
cores: 1
OpenMP: True
OMP_NUM_THREADS: 1

Input parameters:
  kpts: [2 2 2]
  mode: {ecut: 600.0,
         name: pw}
  xc: PBE

System changes: positions, numbers, cell, pbc, initial_charges, initial_magmoms 

Initialize ...

species:
  Cs:
    name: Caesium
    id: fa822afd343f47335d508b9ee4f394c3
    Z: 55.0
    valence: 9
    core: 46
    charge: 0.0
    file: /home/buyer/miniconda3/envs/dft/lib/python3.11/site-packages/gpaw_data/setups/Cs.PBE.gz
    compensation charges: {type: gauss,
                           rc: 0.33,
                           lmax: 2}
    cutoffs: {filter: 2.06,
              core: 2.51}
    projectors:
      #              energy  rcut
      - 5s(2.00)   -26.706   1.164
      - 6s(1.00)    -2.085   1.164
      - 5p(6.00)   -13.523   1.058
      -  p          13.688   1.058
      -  d           0.000   1.058
  
    # Using partial waves for Cs as LCAO basis

  Pb:
    name: Lead
    id: 66e73b13d76dc837202bcdb13fee58e6
    Z: 82.0
    valence: 14
    core: 68
    charge: 0.0
    file: /home/buyer/miniconda3/envs/dft/lib/python3.11/site-packages/gpaw_data/setups/Pb.PBE.gz
    compensation charges: {type: gauss,
                           rc: 0.38,
                           lmax: 2}
    cutoffs: {filter: 2.36,
              core: 2.43}
    projectors:
      #              energy  rcut
      - 6s(2.00)   -11.969   1.259
      - 6p(2.00)    -3.506   1.275
      - 5d(10.00)   -21.211   1.217
      -  s          15.243   1.259
      -  p          23.705   1.275
      -  d           6.001   1.217
  
    # Using partial waves for Pb as LCAO basis

  I:
    name: Iodine
    id: 91405a398e4dfe788ff04f57531604ec
    Z: 53.0
    valence: 7
    core: 46
    charge: 0.0
    file: /home/buyer/miniconda3/envs/dft/lib/python3.11/site-packages/gpaw_data/setups/I.PBE.gz
    compensation charges: {type: gauss,
                           rc: 0.37,
                           lmax: 2}
    cutoffs: {filter: 2.06,
              core: 2.90}
    projectors:
      #              energy  rcut
      - 5s(2.00)   -17.382   1.164
      - 5p(5.00)    -7.088   1.164
      -  s           9.829   1.164
      -  p          20.123   1.164
      -  d           0.000   1.164
  
    # Using partial waves for I as LCAO basis

Reference energy: -10684034.619125  # eV

Spin-paired calculation

Convergence criteria:
 Maximum [total energy] change in last 3 cyles: 0.0005 eV / valence electron
 Maximum integral of absolute [dens]ity change: 0.0001 electrons / valence electron
 Maximum integral of absolute [eigenst]ate change: 4e-08 eV^2 / valence electron
 Maximum number of scf [iter]ations: 333
 (Square brackets indicate name in SCF output, whereas a 'c' in
 the SCF output indicates the quantity has converged.)

Symmetries present (total): 1

  ( 1  0  0)
  ( 0  1  0)
  ( 0  0  1)

8 k-points: 2 x 2 x 2 Monkhorst-Pack grid
4 k-points in the irreducible part of the Brillouin zone
       k-points in crystal coordinates                weights
   0:     0.25000000   -0.25000000   -0.25000000          2/8
   1:     0.25000000   -0.25000000    0.25000000          2/8
   2:     0.25000000    0.25000000   -0.25000000          2/8
   3:     0.25000000    0.25000000    0.25000000          2/8

Wave functions: Plane wave expansion
  Cutoff energy: 600.000 eV
  Number of coefficients (min, max): 71053, 71053
  Pulay-stress correction: 0.000000 eV/Ang^3 (de/decut=0.000000)
  Using FFTW library
  ScaLapack parameters: grid=1x1, blocksize=None
  Wavefunction extrapolation:
    Improved wavefunction reuse through dual PAW basis 

Occupation numbers: Fermi-Dirac:
  width: 0.1000  # eV
 

Eigensolver
   Davidson(niter=2) 

Densities:
  Coarse grid: 75*75*75 grid
  Fine grid: 150*150*150 grid
  Total Charge: 0.000000 

Density mixing:
  Method: separate
  Backend: pulay
  Linear mixing parameter: 0.05
  old densities: 5
  Damping of long wavelength oscillations: 50 

Hamiltonian:
  XC and Coulomb potentials evaluated on a 150*150*150 grid
  Using the PBE Exchange-Correlation functional
  External potential:
    NoExternalPotential
 

XC parameters: PBE with 2 nearest neighbor stencil

Memory estimate:
  Process memory now: 5114.41 MiB
  Calculator: 1486.21 MiB
    Density: 229.34 MiB
      Arrays: 83.68 MiB
      Localized functions: 113.46 MiB
      Mixer: 32.19 MiB
    Hamiltonian: 57.78 MiB
      Arrays: 54.72 MiB
      XC: 0.00 MiB
      Poisson: 0.00 MiB
      vbar: 3.07 MiB
    Wavefunctions: 1199.09 MiB
      Arrays psit_nG: 884.69 MiB
      Eigensolver: 232.95 MiB
      Projections: 6.81 MiB
      Projectors: 54.21 MiB
      PW-descriptor: 20.43 MiB

Total number of cores used: 1

Number of atoms: 39
Number of atomic orbitals: 204
Number of bands in calculation: 204
Number of valence electrons: 345
Bands to converge: occupied

... initialized

Initializing position-dependent things.

Density initialized from atomic densities
Creating initial wave functions:
  204 bands from LCAO basis set

         .---------------Cs------------Cs  
        /|                              |  
       / |     I                        |  
      /  |                              |  
     /   |       I                      |  
    /    |                              |  
   /     |     Pb     I       Pb      I |  
  /      |                              |  
 *       |   I              I           |  
 |       |                              |  
 | I     | Pb  I  I       Pb  I         |  
 |       |                              |  
 |   Cs  |          Cs  I               |  
 |       |                              |  
 |     I | I   Pb      I  I   Pb        |  
 |       |                              |  
 |       .---I---Cs---------I--Cs-------.  
 |      /                              /   
 | I   /   Pb      I      Pb  I       /    
 |    /                              /     
 |   /               Cs I           /s     
 |  /                              /       
 | /     I                I       /        
 |/                              /         
 *------------------------------*          

Atomic positions and initial magnetic moments

Positions:
   0 Cs    -0.277166   -0.131929   -0.124480    ( 0.0000,  0.0000,  0.0000)
   1 Pb     3.195000    3.217317    3.340829    ( 0.0000,  0.0000,  0.0000)
   2 I      0.024036    3.358426    3.536421    ( 0.0000,  0.0000,  0.0000)
   3 I      3.195000    0.975196    1.197902    ( 0.0000,  0.0000,  0.0000)
   4 Cs    -0.298803    0.128419    6.824345    ( 0.0000,  0.0000,  0.0000)
   5 Pb     3.195000    3.068454    9.653509    ( 0.0000,  0.0000,  0.0000)
   6 I      3.195000    3.102938    6.563352    ( 0.0000,  0.0000,  0.0000)
   7 I      0.023953    3.078668    9.930571    ( 0.0000,  0.0000,  0.0000)
   8 I      3.195000   -0.099604    9.426769    ( 0.0000,  0.0000,  0.0000)
   9 Cs    -0.281473    6.719363    0.078980    ( 0.0000,  0.0000,  0.0000)
  10 Pb     3.195000    9.512725    3.099305    ( 0.0000,  0.0000,  0.0000)
  11 I      3.195000    9.395823   -0.129341    ( 0.0000,  0.0000,  0.0000)
  12 I      0.016169    9.683782    3.130906    ( 0.0000,  0.0000,  0.0000)
  13 I      3.195000    6.404312    2.997943    ( 0.0000,  0.0000,  0.0000)
  14 Cs     0.096891    6.414725    6.500104    ( 0.0000,  0.0000,  0.0000)
  15 Pb     3.195000    9.471400    9.637434    ( 0.0000,  0.0000,  0.0000)
  16 I      3.195000    9.324858    6.359664    ( 0.0000,  0.0000,  0.0000)
  17 I     -0.004065    9.568929    9.746988    ( 0.0000,  0.0000,  0.0000)
  18 I      3.195000    6.261637    9.590778    ( 0.0000,  0.0000,  0.0000)
  19 Cs     6.667166   -0.131929   -0.124480    ( 0.0000,  0.0000,  0.0000)
  20 Pb     9.585000    3.274872    3.355161    ( 0.0000,  0.0000,  0.0000)
  21 I      9.585000    3.204723    0.106798    ( 0.0000,  0.0000,  0.0000)
  22 I      6.365964    3.358426    3.536421    ( 0.0000,  0.0000,  0.0000)
  23 I      9.585000    0.078587    3.399396    ( 0.0000,  0.0000,  0.0000)
  24 Cs     6.688803    0.128419    6.824345    ( 0.0000,  0.0000,  0.0000)
  25 Pb     9.585000    3.238893    9.886992    ( 0.0000,  0.0000,  0.0000)
  26 I      9.585000    3.311838    6.637004    ( 0.0000,  0.0000,  0.0000)
  27 I      6.366047    3.078668    9.930571    ( 0.0000,  0.0000,  0.0000)
  28 I      9.585000    0.008485    9.809044    ( 0.0000,  0.0000,  0.0000)
  29 Cs     6.671473    6.719363    0.078980    ( 0.0000,  0.0000,  0.0000)
  30 Pb     9.585000    9.675170    3.300237    ( 0.0000,  0.0000,  0.0000)
  31 I      9.585000    9.703998    0.003934    ( 0.0000,  0.0000,  0.0000)
  32 I      6.373831    9.683782    3.130906    ( 0.0000,  0.0000,  0.0000)
  33 I      9.585000    6.482291    3.239206    ( 0.0000,  0.0000,  0.0000)
  34 Cs     6.293109    6.414725    6.500104    ( 0.0000,  0.0000,  0.0000)
  35 Pb     9.585000    9.576320    9.752660    ( 0.0000,  0.0000,  0.0000)
  36 I      9.585000    9.613754    6.528208    ( 0.0000,  0.0000,  0.0000)
  37 I      6.394065    9.568929    9.746988    ( 0.0000,  0.0000,  0.0000)
  38 I      9.585000    6.412492    9.984667    ( 0.0000,  0.0000,  0.0000)

Unit cell:
           periodic     x           y           z      points  spacing
  1. axis:    yes   12.780000    0.000000    0.000000    75     0.1704
  2. axis:    yes    0.000000   12.780000    0.000000    75     0.1704
  3. axis:    yes    0.000000    0.000000   13.035600    75     0.1738

  Lengths:  12.780000  12.780000  13.035600
  Angles:   90.000000  90.000000  90.000000

Effective grid spacing dv^(1/3) = 0.1715

     iter     time        total  log10-change:
                         energy   eigst   dens
iter:   1 12:47:00  -113.507846
iter:   2 12:47:53  -112.933247   -1.43  -1.29
iter:   3 12:48:46  -110.635916   -2.01  -1.33
iter:   4 12:49:51  -110.285678   -1.99  -1.52
iter:   5 12:50:53  -110.256529   -2.71  -1.72
iter:   6 12:51:46  -110.173391c  -3.56  -2.06
iter:   7 12:52:40  -110.121616c  -3.45  -2.27
iter:   8 12:53:33  -110.120256c  -4.45  -2.40
iter:   9 12:54:37  -110.124807c  -4.46  -2.69
iter:  10 12:56:14  -110.125545c  -5.10  -2.76
iter:  11 12:58:48  -110.123776c  -5.60  -3.08
iter:  12 13:00:50  -110.124011c  -6.43  -3.20
iter:  13 13:01:59  -110.124654c  -6.18  -3.23
iter:  14 13:03:30  -110.124448c  -6.12  -3.30
iter:  15 13:04:39  -110.124152c  -6.90  -3.33
iter:  16 13:06:03  -110.123978c  -6.82  -3.36
iter:  17 13:07:11  -110.124119c  -6.63  -3.41
iter:  18 13:08:14  -110.123898c  -6.76  -3.51
iter:  19 13:09:18  -110.123892c  -7.23  -3.59
iter:  20 13:10:21  -110.124148c  -7.22  -3.66
iter:  21 13:11:27  -110.124266c  -7.57c -3.79
iter:  22 13:12:35  -110.124330c  -7.63c -3.86
iter:  23 13:13:58  -110.124407c  -7.81c -3.92
iter:  24 13:15:02  -110.124443c  -7.43c -3.98
iter:  25 13:16:15  -110.124438c  -7.98c -4.10c

Converged after 25 iterations.

Dipole moment: (72.119500, -5.941449, 10.186088) |e|*Ang

Energy contributions relative to reference atoms: (reference = -10684034.619125)

Kinetic:       +186.186138
Potential:     -195.003214
External:        +0.000000
XC:            -100.374917
Entropy (-ST):   -0.232899
Local:           -0.815995
SIC:             +0.000000
--------------------------
Free energy:   -110.240888
Extrapolated:  -110.124438

Showing only first 2 kpts
 Kpt  Band  Eigenvalues  Occupancy
  0   170      0.93630    2.00000
  0   171      1.09220    2.00000
  0   172      3.53552    0.69334
  0   173      3.74602    0.12145

  1   170      0.93834    2.00000
  1   171      1.09469    2.00000
  1   172      3.49878    0.86765
  1   173      3.74230    0.12577


Fermi level: 3.47215

Gap: 2.404 eV
Transition (v -> c):
  (s=0, k=1, n=171, [0.25, -0.25, 0.25]) -> (s=0, k=1, n=172, [0.25, -0.25, 0.25])
No difference between direct/indirect transitions
Timing:                              incl.     excl.
-----------------------------------------------------------
Hamiltonian:                         2.926     0.014   0.0% |
 Atomic:                             0.922     0.003   0.0% |
  XC Correction:                     0.919     0.919   0.0% |
 Calculate atomic Hamiltonians:      1.227     1.227   0.0% |
 Communicate:                        0.000     0.000   0.0% |
 Initialize Hamiltonian:             0.001     0.001   0.0% |
 Poisson:                            0.013     0.013   0.0% |
 XC 3D grid:                         0.748     0.748   0.0% |
LCAO initialization:                70.580     0.094   0.0% |
 LCAO eigensolver:                   1.483     0.001   0.0% |
  Calculate projections:             0.005     0.005   0.0% |
  DenseAtomicCorrection:             0.081     0.081   0.0% |
  Distribute overlap matrix:         0.001     0.001   0.0% |
  Orbital Layouts:                   0.656     0.656   0.0% |
  Potential matrix:                  0.659     0.659   0.0% |
  Sum over cells:                    0.079     0.079   0.0% |
 LCAO to grid:                      68.012    68.012   2.0% ||
 Set positions (LCAO WFS):           0.990     0.166   0.0% |
  Basic WFS set positions:           0.001     0.001   0.0% |
  Basis functions set positions:     0.000     0.000   0.0% |
  P tci:                             0.730     0.730   0.0% |
  ST tci:                            0.074     0.074   0.0% |
  mktci:                             0.020     0.020   0.0% |
PWDescriptor:                        0.074     0.074   0.0% |
SCF-cycle:                        1806.539     0.137   0.0% |
 Davidson:                        1594.614   333.617   9.8% |---|
  Apply H:                         201.068   195.911   5.8% |-|
   HMM T:                            5.157     5.157   0.2% |
  Subspace diag:                   269.518     0.016   0.0% |
   calc_h_matrix:                  229.671    28.161   0.8% |
    Apply H:                       201.510   195.838   5.8% |-|
     HMM T:                          5.673     5.673   0.2% |
   diagonalize:                     12.943    12.943   0.4% |
   rotate_psi:                      26.888    26.888   0.8% |
  calc. matrices:                  566.116   164.287   4.8% |-|
   Apply H:                        401.829   391.582  11.6% |----|
    HMM T:                          10.246    10.246   0.3% |
  diagonalize:                     173.331   173.331   5.1% |-|
  rotate_psi:                       50.964    50.964   1.5% ||
 Density:                          138.084     0.004   0.0% |
  Atomic density matrices:           0.180     0.180   0.0% |
  Mix:                              40.853    40.853   1.2% |
  Multipole moments:                 0.011     0.011   0.0% |
  Pseudo density:                   97.036    97.036   2.9% ||
   Symmetrize density:               0.001     0.001   0.0% |
 Hamiltonian:                       71.078     0.243   0.0% |
  Atomic:                           22.850     0.071   0.0% |
   XC Correction:                   22.778    22.778   0.7% |
  Calculate atomic Hamiltonians:    31.047    31.047   0.9% |
  Communicate:                       0.000     0.000   0.0% |
  Poisson:                           0.366     0.366   0.0% |
  XC 3D grid:                       16.573    16.573   0.5% |
 Orthonormalize:                     2.626     0.001   0.0% |
  calc_s_matrix:                     0.265     0.265   0.0% |
  inverse-cholesky:                  0.007     0.007   0.0% |
  projections:                       1.845     1.845   0.1% |
  rotate_psi_s:                      0.507     0.507   0.0% |
Set symmetry:                        0.002     0.002   0.0% |
Other:                            1508.575  1508.575  44.5% |-----------------|
-----------------------------------------------------------
Total:                                      3388.695 100.0%

Memory usage: 10.00 GiB
Date: Fri Jul 17 13:41:19 2026
