
  ___ ___ ___ _ _ _  
 |   |   |_  | | | | 
 | | | | | . | | | | 
 |__ |  _|___|_____|  25.7.0
 |___|_|             

User:   buyer@DESKTOP-3EQA59H
Date:   Fri Jul 17 12:22:55 2026
Arch:   x86_64
Pid:    30764
CWD:    /mnt/c/Users/Buyer/dft-si
Python: 3.11.15
gpaw:   /home/buyer/miniconda3/envs/dft/lib/python3.11/site-packages/gpaw
_gpaw:  /home/buyer/miniconda3/envs/dft/lib/python3.11/site-packages/
        _gpaw.cpython-311-x86_64-linux-gnu.so
ase:    /home/buyer/miniconda3/envs/dft/lib/python3.11/site-packages/ase (version 3.29.0)
numpy:  /home/buyer/miniconda3/envs/dft/lib/python3.11/site-packages/numpy (version 2.4.6)
scipy:  /home/buyer/miniconda3/envs/dft/lib/python3.11/site-packages/scipy (version 1.17.1)
libxc:  7.0.0
units:  Angstrom and eV
cores: 1
OpenMP: True
OMP_NUM_THREADS: 1

Input parameters:
  kpts: [2 2 2]
  mode: {ecut: 600.0,
         name: pw}
  xc: PBE

System changes: positions, numbers, cell, pbc, initial_charges, initial_magmoms 

Initialize ...

species:
  Cs:
    name: Caesium
    id: fa822afd343f47335d508b9ee4f394c3
    Z: 55.0
    valence: 9
    core: 46
    charge: 0.0
    file: /home/buyer/miniconda3/envs/dft/lib/python3.11/site-packages/gpaw_data/setups/Cs.PBE.gz
    compensation charges: {type: gauss,
                           rc: 0.33,
                           lmax: 2}
    cutoffs: {filter: 2.06,
              core: 2.51}
    projectors:
      #              energy  rcut
      - 5s(2.00)   -26.706   1.164
      - 6s(1.00)    -2.085   1.164
      - 5p(6.00)   -13.523   1.058
      -  p          13.688   1.058
      -  d           0.000   1.058
  
    # Using partial waves for Cs as LCAO basis

  Pb:
    name: Lead
    id: 66e73b13d76dc837202bcdb13fee58e6
    Z: 82.0
    valence: 14
    core: 68
    charge: 0.0
    file: /home/buyer/miniconda3/envs/dft/lib/python3.11/site-packages/gpaw_data/setups/Pb.PBE.gz
    compensation charges: {type: gauss,
                           rc: 0.38,
                           lmax: 2}
    cutoffs: {filter: 2.36,
              core: 2.43}
    projectors:
      #              energy  rcut
      - 6s(2.00)   -11.969   1.259
      - 6p(2.00)    -3.506   1.275
      - 5d(10.00)   -21.211   1.217
      -  s          15.243   1.259
      -  p          23.705   1.275
      -  d           6.001   1.217
  
    # Using partial waves for Pb as LCAO basis

  I:
    name: Iodine
    id: 91405a398e4dfe788ff04f57531604ec
    Z: 53.0
    valence: 7
    core: 46
    charge: 0.0
    file: /home/buyer/miniconda3/envs/dft/lib/python3.11/site-packages/gpaw_data/setups/I.PBE.gz
    compensation charges: {type: gauss,
                           rc: 0.37,
                           lmax: 2}
    cutoffs: {filter: 2.06,
              core: 2.90}
    projectors:
      #              energy  rcut
      - 5s(2.00)   -17.382   1.164
      - 5p(5.00)    -7.088   1.164
      -  s           9.829   1.164
      -  p          20.123   1.164
      -  d           0.000   1.164
  
    # Using partial waves for I as LCAO basis

Reference energy: -10684034.619125  # eV

Spin-paired calculation

Convergence criteria:
 Maximum [total energy] change in last 3 cyles: 0.0005 eV / valence electron
 Maximum integral of absolute [dens]ity change: 0.0001 electrons / valence electron
 Maximum integral of absolute [eigenst]ate change: 4e-08 eV^2 / valence electron
 Maximum number of scf [iter]ations: 333
 (Square brackets indicate name in SCF output, whereas a 'c' in
 the SCF output indicates the quantity has converged.)

Symmetries present (total): 1

  ( 1  0  0)
  ( 0  1  0)
  ( 0  0  1)

8 k-points: 2 x 2 x 2 Monkhorst-Pack grid
4 k-points in the irreducible part of the Brillouin zone
       k-points in crystal coordinates                weights
   0:     0.25000000   -0.25000000   -0.25000000          2/8
   1:     0.25000000   -0.25000000    0.25000000          2/8
   2:     0.25000000    0.25000000   -0.25000000          2/8
   3:     0.25000000    0.25000000    0.25000000          2/8

Wave functions: Plane wave expansion
  Cutoff energy: 600.000 eV
  Number of coefficients (min, max): 71053, 71053
  Pulay-stress correction: 0.000000 eV/Ang^3 (de/decut=0.000000)
  Using FFTW library
  ScaLapack parameters: grid=1x1, blocksize=None
  Wavefunction extrapolation:
    Improved wavefunction reuse through dual PAW basis 

Occupation numbers: Fermi-Dirac:
  width: 0.1000  # eV
 

Eigensolver
   Davidson(niter=2) 

Densities:
  Coarse grid: 75*75*75 grid
  Fine grid: 150*150*150 grid
  Total Charge: 0.000000 

Density mixing:
  Method: separate
  Backend: pulay
  Linear mixing parameter: 0.05
  old densities: 5
  Damping of long wavelength oscillations: 50 

Hamiltonian:
  XC and Coulomb potentials evaluated on a 150*150*150 grid
  Using the PBE Exchange-Correlation functional
  External potential:
    NoExternalPotential
 

XC parameters: PBE with 2 nearest neighbor stencil

Memory estimate:
  Process memory now: 2531.06 MiB
  Calculator: 1486.21 MiB
    Density: 229.34 MiB
      Arrays: 83.68 MiB
      Localized functions: 113.46 MiB
      Mixer: 32.19 MiB
    Hamiltonian: 57.78 MiB
      Arrays: 54.72 MiB
      XC: 0.00 MiB
      Poisson: 0.00 MiB
      vbar: 3.07 MiB
    Wavefunctions: 1199.09 MiB
      Arrays psit_nG: 884.69 MiB
      Eigensolver: 232.95 MiB
      Projections: 6.81 MiB
      Projectors: 54.21 MiB
      PW-descriptor: 20.43 MiB

Total number of cores used: 1

Number of atoms: 39
Number of atomic orbitals: 204
Number of bands in calculation: 204
Number of valence electrons: 345
Bands to converge: occupied

... initialized

Initializing position-dependent things.

Density initialized from atomic densities
Creating initial wave functions:
  204 bands from LCAO basis set

         .---------------Cs------------Cs  
        /|                              |  
       / |     I              I         |  
      /  |                              |  
     /   |       I                      |  
    /    |                              |  
   /     |     Pb      I      Pb      I |  
  /      |                              |  
 *       |                  I           |  
 |       |   I                          |  
 | I     | Pb  I  I       Pb  I         |  
 |       |                              |  
 |   Cs  |          Cs  I               |  
 |       |                              |  
 |     I | I   Pb      I  I   Pb        |  
 |       |                              |  
 |       .---I---Cs---------I--Cs-------.  
 |      /                              /   
 | I   /   Pb      I      Pb          /    
 |    /                              /     
 |   /               Cs I          C/      
 |  /                              /       
 | /     I                I       /        
 |/                              /         
 *------------------------------*          

Atomic positions and initial magnetic moments

Positions:
   0 Cs    -0.255353   -0.119782   -0.130584    ( 0.0000,  0.0000,  0.0000)
   1 Pb     3.195000    3.214511    3.303464    ( 0.0000,  0.0000,  0.0000)
   2 I      0.028837    3.377687    3.498049    ( 0.0000,  0.0000,  0.0000)
   3 I      3.195000    0.573513    1.621668    ( 0.0000,  0.0000,  0.0000)
   4 Cs    -0.286650    0.100304    6.820309    ( 0.0000,  0.0000,  0.0000)
   5 Pb     3.195000    3.100555    9.563866    ( 0.0000,  0.0000,  0.0000)
   6 I      3.195000    2.961576    6.478328    ( 0.0000,  0.0000,  0.0000)
   7 I      0.032042    3.089734    9.927930    ( 0.0000,  0.0000,  0.0000)
   8 I      3.195000   -0.074335    9.595899    ( 0.0000,  0.0000,  0.0000)
   9 Cs    -0.292887    6.718168    0.102318    ( 0.0000,  0.0000,  0.0000)
  10 Pb     3.195000    9.632544    3.046827    ( 0.0000,  0.0000,  0.0000)
  11 I      3.195000    9.256509   -0.157252    ( 0.0000,  0.0000,  0.0000)
  12 I      0.009558    9.702888    3.114505    ( 0.0000,  0.0000,  0.0000)
  13 I      3.195000    6.493479    3.150394    ( 0.0000,  0.0000,  0.0000)
  14 Cs     0.101198    6.446861    6.458850    ( 0.0000,  0.0000,  0.0000)
  15 Pb     3.195000    9.485326    9.615416    ( 0.0000,  0.0000,  0.0000)
  16 I      3.195000    9.529130    6.353562    ( 0.0000,  0.0000,  0.0000)
  17 I     -0.004764    9.571138    9.746090    ( 0.0000,  0.0000,  0.0000)
  18 I      3.195000    6.278550    9.378484    ( 0.0000,  0.0000,  0.0000)
  19 Cs     6.645353   -0.119782   -0.130584    ( 0.0000,  0.0000,  0.0000)
  20 Pb     9.585000    3.279861    3.347512    ( 0.0000,  0.0000,  0.0000)
  21 I      9.585000    3.205055    0.099893    ( 0.0000,  0.0000,  0.0000)
  22 I      6.361163    3.377687    3.498049    ( 0.0000,  0.0000,  0.0000)
  23 I      9.585000    0.087737    3.398261    ( 0.0000,  0.0000,  0.0000)
  24 Cs     6.676650    0.100304    6.820309    ( 0.0000,  0.0000,  0.0000)
  25 Pb     9.585000    3.244640    9.876945    ( 0.0000,  0.0000,  0.0000)
  26 I      9.585000    3.319395    6.627343    ( 0.0000,  0.0000,  0.0000)
  27 I      6.357958    3.089734    9.927930    ( 0.0000,  0.0000,  0.0000)
  28 I      9.585000    0.013112    9.801319    ( 0.0000,  0.0000,  0.0000)
  29 Cs     6.682887    6.718168    0.102318    ( 0.0000,  0.0000,  0.0000)
  30 Pb     9.585000    9.687026    3.291066    ( 0.0000,  0.0000,  0.0000)
  31 I      9.585000    9.716420   -0.001537    ( 0.0000,  0.0000,  0.0000)
  32 I      6.380442    9.702888    3.114505    ( 0.0000,  0.0000,  0.0000)
  33 I      9.585000    6.490935    3.232800    ( 0.0000,  0.0000,  0.0000)
  34 Cs     6.288802    6.446861    6.458850    ( 0.0000,  0.0000,  0.0000)
  35 Pb     9.585000    9.578632    9.751431    ( 0.0000,  0.0000,  0.0000)
  36 I      9.585000    9.606860    6.522943    ( 0.0000,  0.0000,  0.0000)
  37 I      6.394764    9.571138    9.746090    ( 0.0000,  0.0000,  0.0000)
  38 I      9.585000    6.417187   10.000499    ( 0.0000,  0.0000,  0.0000)

Unit cell:
           periodic     x           y           z      points  spacing
  1. axis:    yes   12.780000    0.000000    0.000000    75     0.1704
  2. axis:    yes    0.000000   12.780000    0.000000    75     0.1704
  3. axis:    yes    0.000000    0.000000   13.035600    75     0.1738

  Lengths:  12.780000  12.780000  13.035600
  Angles:   90.000000  90.000000  90.000000

Effective grid spacing dv^(1/3) = 0.1715

     iter     time        total  log10-change:
                         energy   eigst   dens
iter:   1 12:25:34  -113.584271
iter:   2 12:26:50  -113.008630   -1.43  -1.29
iter:   3 12:28:19  -110.704737   -2.00  -1.33
iter:   4 12:29:19  -110.352460   -1.98  -1.52
iter:   5 12:30:28  -110.309405   -2.78  -1.72
iter:   6 12:31:31  -110.239095c  -3.53  -2.07
iter:   7 12:32:48  -110.188180c  -3.59  -2.30
iter:   8 12:33:44  -110.189004c  -4.61  -2.42
iter:   9 12:34:42  -110.192665c  -4.45  -2.63
iter:  10 12:35:48  -110.193263c  -5.26  -2.93
iter:  11 12:36:43  -110.192556c  -6.09  -3.10
iter:  12 12:37:35  -110.191910c  -5.51  -3.14
iter:  13 12:38:33  -110.191998c  -6.17  -3.36
iter:  14 12:39:28  -110.192161c  -6.77  -3.45
iter:  15 12:40:22  -110.192414c  -6.58  -3.49
iter:  16 12:41:14  -110.192450c  -6.40  -3.56
iter:  17 12:42:07  -110.192448c  -7.60c -3.92
iter:  18 12:43:03  -110.192481c  -8.00c -3.93
iter:  19 12:43:58  -110.192554c  -7.10  -4.00
iter:  20 12:44:50  -110.192509c  -7.90c -4.27c

Converged after 20 iterations.

Dipole moment: (69.890303, -19.202078, 12.334824) |e|*Ang

Energy contributions relative to reference atoms: (reference = -10684034.619125)

Kinetic:       +185.358532
Potential:     -194.265043
External:        +0.000000
XC:            -100.162846
Entropy (-ST):   -0.225852
Local:           -1.010227
SIC:             +0.000000
--------------------------
Free energy:   -110.305435
Extrapolated:  -110.192509

Showing only first 2 kpts
 Kpt  Band  Eigenvalues  Occupancy
  0   170      0.94185    2.00000
  0   171      1.06410    2.00000
  0   172      3.51863    0.73608
  0   173      3.75133    0.10755

  1   170      0.94809    2.00000
  1   171      1.07060    2.00000
  1   172      3.48984    0.87429
  1   173      3.75161    0.10726


Fermi level: 3.46457

Gap: 2.419 eV
Transition (v -> c):
  (s=0, k=1, n=171, [0.25, -0.25, 0.25]) -> (s=0, k=1, n=172, [0.25, -0.25, 0.25])
No difference between direct/indirect transitions
Timing:                              incl.     excl.
-----------------------------------------------------------
Hamiltonian:                         3.465     0.008   0.0% |
 Atomic:                             0.935     0.002   0.0% |
  XC Correction:                     0.933     0.933   0.0% |
 Calculate atomic Hamiltonians:      1.737     1.737   0.0% |
 Communicate:                        0.000     0.000   0.0% |
 Initialize Hamiltonian:             0.010     0.010   0.0% |
 Poisson:                            0.053     0.053   0.0% |
 XC 3D grid:                         0.721     0.721   0.0% |
LCAO initialization:                81.018     0.100   0.0% |
 LCAO eigensolver:                   1.489     0.001   0.0% |
  Calculate projections:             0.005     0.005   0.0% |
  DenseAtomicCorrection:             0.231     0.231   0.0% |
  Distribute overlap matrix:         0.001     0.001   0.0% |
  Orbital Layouts:                   0.523     0.523   0.0% |
  Potential matrix:                  0.656     0.656   0.0% |
  Sum over cells:                    0.072     0.072   0.0% |
 LCAO to grid:                      77.833    77.833   1.7% ||
 Set positions (LCAO WFS):           1.596     0.433   0.0% |
  Basic WFS set positions:           0.001     0.001   0.0% |
  Basis functions set positions:     0.000     0.000   0.0% |
  P tci:                             1.042     1.042   0.0% |
  ST tci:                            0.073     0.073   0.0% |
  mktci:                             0.047     0.047   0.0% |
PWDescriptor:                        0.110     0.110   0.0% |
SCF-cycle:                        1224.458     0.083   0.0% |
 Davidson:                        1065.739   219.238   4.7% |-|
  Apply H:                         153.467   149.656   3.2% ||
   HMM T:                            3.811     3.811   0.1% |
  Subspace diag:                   197.964     0.014   0.0% |
   calc_h_matrix:                  171.781    19.622   0.4% |
    Apply H:                       152.159   148.234   3.2% ||
     HMM T:                          3.925     3.925   0.1% |
   diagonalize:                      7.096     7.096   0.2% |
   rotate_psi:                      19.073    19.073   0.4% |
  calc. matrices:                  415.870   106.706   2.3% ||
   Apply H:                        309.164   301.542   6.4% |--|
    HMM T:                           7.621     7.621   0.2% |
  diagonalize:                      44.830    44.830   1.0% |
  rotate_psi:                       34.370    34.370   0.7% |
 Density:                           99.479     0.000   0.0% |
  Atomic density matrices:           0.126     0.126   0.0% |
  Mix:                              26.398    26.398   0.6% |
  Multipole moments:                 0.009     0.009   0.0% |
  Pseudo density:                   72.944    72.944   1.6% ||
   Symmetrize density:               0.000     0.000   0.0% |
 Hamiltonian:                       54.047     0.179   0.0% |
  Atomic:                           17.955     0.048   0.0% |
   XC Correction:                   17.907    17.907   0.4% |
  Calculate atomic Hamiltonians:    22.687    22.687   0.5% |
  Communicate:                       0.000     0.000   0.0% |
  Poisson:                           0.244     0.244   0.0% |
  XC 3D grid:                       12.983    12.983   0.3% |
 Orthonormalize:                     5.110     0.001   0.0% |
  calc_s_matrix:                     0.800     0.800   0.0% |
  inverse-cholesky:                  0.052     0.052   0.0% |
  projections:                       3.605     3.605   0.1% |
  rotate_psi_s:                      0.651     0.651   0.0% |
Set symmetry:                        0.003     0.003   0.0% |
Other:                            3395.040  3395.040  72.2% |----------------------------|
-----------------------------------------------------------
Total:                                      4704.094 100.0%

Memory usage: 10.00 GiB
Date: Fri Jul 17 13:41:19 2026
