39
Lattice="12.78 0.0 0.0 0.0 12.78 0.0 0.0 0.0 13.035599999999999" Properties=species:S:1:pos:R:3:spacegroup_kinds:I:1:forces:R:3:energies:R:1 spacegroup="P m -3 m" unit_cell=conventional energy=-110.69263516839035 stress="0.0011963578044729248 -4.2102494708454697e-19 -1.9698756698952104e-18 -4.2102494708454697e-19 0.0011963578044729057 -1.2218996575635642e-18 -1.9698756698952104e-18 -1.2218996575635642e-18 0.005281554064114033" free_energy=-110.69263516839035 pbc="T T T"
Cs      -0.16883783      -0.16883783       0.00000000        0      -0.00942149      -0.00942149       0.00000000      -3.46833592
Pb       3.19500000       3.19500000       3.41449750        1       0.00000000       0.00000000       0.01231016      -4.16186392
I        0.03080726       3.19500000       3.18076905        2       0.00693942       0.00000000       0.00295625      -2.07670148
I        3.19500000       0.03080726       3.18076905        2       0.00000000       0.00693942       0.00295625      -2.07670148
Cs      -0.05327112      -0.05327112       6.51780000        0       0.00576507       0.00576507       0.00000000      -3.46570643
Pb       3.19500000       3.19500000       9.62110250        1       0.00000000       0.00000000      -0.01231016      -4.16186392
I        3.19500000       3.19500000       6.51780000        2      -0.00000000       0.00000000       0.00000000      -2.13529947
I        0.03080726       3.19500000       9.85483095        2       0.00693942       0.00000000      -0.00295625      -2.07670148
I        3.19500000       0.03080726       9.85483095        2      -0.00000000       0.00693942      -0.00295625      -2.07670148
Cs      -0.16883783       6.55883783       0.00000000        0      -0.00942149       0.00942149       0.00000000      -3.46833592
Pb       3.19500000       9.58500000       3.24968469        1       0.00000000       0.00000000      -0.00478657      -4.44218012
I        3.19500000       9.58500000       0.00000000        2       0.00000000       0.00000000      -0.00000000      -2.07242981
I       -0.00286632       9.58500000       3.22002800        2       0.01155028       0.00000000       0.00863904      -2.08408473
I        3.19500000       6.35919274       3.18076905        2       0.00000000      -0.00693942       0.00295625      -2.07670148
Cs      -0.05327112       6.44327112       6.51780000        0       0.00576507      -0.00576507       0.00000000      -3.46570643
Pb       3.19500000       9.58500000       9.78591531        1      -0.00000000      -0.00000000       0.00478657      -4.44218012
I        3.19500000       9.58500000       6.51780000        2      -0.00000000       0.00000000       0.00000000      -2.09979168
I       -0.00286632       9.58500000       9.81557200        2       0.01155028      -0.00000000      -0.00863904      -2.08408473
I        3.19500000       6.35919274       9.85483095        2       0.00000000      -0.00693942      -0.00295625      -2.07670148
Cs       6.55883783      -0.16883783       0.00000000        0       0.00942149      -0.00942149       0.00000000      -3.46833592
Pb       9.58500000       3.19500000       3.24968469        1       0.00000000       0.00000000      -0.00478657      -4.44218012
I        9.58500000       3.19500000       0.00000000        2      -0.00000000       0.00000000       0.00000000      -2.07242981
I        6.35919274       3.19500000       3.18076905        2      -0.00693942       0.00000000       0.00295625      -2.07670148
I        9.58500000      -0.00286632       3.22002800        2       0.00000000       0.01155028       0.00863904      -2.08408473
Cs       6.44327112      -0.05327112       6.51780000        0      -0.00576507       0.00576507       0.00000000      -3.46570643
Pb       9.58500000       3.19500000       9.78591531        1      -0.00000000       0.00000000       0.00478657      -4.44218012
I        9.58500000       3.19500000       6.51780000        2       0.00000000       0.00000000       0.00000000      -2.09979168
I        6.35919274       3.19500000       9.85483095        2      -0.00693942      -0.00000000      -0.00295625      -2.07670148
I        9.58500000      -0.00286632       9.81557200        2      -0.00000000       0.01155028      -0.00863904      -2.08408473
Cs       6.55883783       6.55883783       0.00000000        0       0.00942149       0.00942149       0.00000000      -3.46833592
Pb       9.58500000       9.58500000       3.27117208        1       0.00000000       0.00000000       0.00035462      -4.42758658
I        9.58500000       9.58500000       0.00000000        2      -0.00000000      -0.00000000       0.00000000      -2.12971046
I        6.39286632       9.58500000       3.22002800        2      -0.01155028       0.00000000       0.00863904      -2.08408473
I        9.58500000       6.39286632       3.22002800        2       0.00000000      -0.01155028       0.00863904      -2.08408473
Cs       6.44327112       6.44327112       6.51780000        0      -0.00576507      -0.00576507       0.00000000      -3.46570643
Pb       9.58500000       9.58500000       9.76442792        1      -0.00000000      -0.00000000      -0.00035462      -4.42758658
I        9.58500000       9.58500000       6.51780000        2       0.00000000       0.00000000       0.00000000      -2.11310165
I        6.39286632       9.58500000       9.81557200        2      -0.01155028      -0.00000000      -0.00863904      -2.08408473
I        9.58500000       6.39286632       9.81557200        2      -0.00000000      -0.01155028      -0.00863904      -2.08408473
