39
Lattice="12.78 0.0 0.0 0.0 12.78 0.0 0.0 0.0 12.78" Properties=species:S:1:pos:R:3:spacegroup_kinds:I:1:forces:R:3:energies:R:1 spacegroup="P m -3 m" unit_cell=conventional energy=-110.84124492300907 stress="0.0002700289678723084 -6.601870917777466e-10 -7.365669866075873e-18 -6.601870917777466e-10 0.00027002896787231356 -7.77030345314876e-18 -7.365669866075873e-18 -7.77030345314876e-18 0.0016642010664888194" free_energy=-110.84124492300907 pbc="T T T"
Cs      -0.19117297      -0.19117297      -0.00000000        0       0.00468188       0.00468188       0.00000000      -3.48605947
Pb       3.19500189       3.19500189       3.30017100        1       0.00000365       0.00000365      -0.01372922      -4.16628651
I        0.03140282       3.19501276       3.10671139        2       0.00439213      -0.00000692      -0.00013184      -2.07874836
I        3.19501276       0.03140282       3.10671139        2      -0.00000692       0.00439213      -0.00013184      -2.07874836
Cs      -0.02747605      -0.02747605       6.39000000        0       0.00049252       0.00049252      -0.00000000      -3.49981002
Pb       3.19500189       3.19500189       9.47982900        1       0.00000365       0.00000365       0.01372922      -4.16628651
I        3.19500524       3.19500524       6.39000000        2      -0.00001537      -0.00001537       0.00000000      -2.12476954
I        0.03140282       3.19501276       9.67328861        2       0.00439213      -0.00000692       0.00013184      -2.07874836
I        3.19501276       0.03140282       9.67328861        2      -0.00000692       0.00439213       0.00013184      -2.07874836
Cs      -0.19118091       6.58119210      -0.00000000        0       0.00468356      -0.00468773      -0.00000000      -3.48606757
Pb       3.19500079       9.58500233       3.18755803        1       0.00000429      -0.00000476      -0.00251897      -4.45348061
I        3.19501024       9.58497316      -0.00000000        2      -0.00000522       0.00000079      -0.00000000      -2.05352013
I       -0.00015774       9.58499007       3.19272285        2      -0.00229599       0.00000673      -0.00438998      -2.08228477
I        3.19501169       6.35859718       3.10675331        2      -0.00000587      -0.00438578      -0.00012963      -2.07874181
Cs      -0.02747193       6.41747567       6.39000000        0       0.00049282      -0.00049264       0.00000000      -3.49982265
Pb       3.19500079       9.58500233       9.59244197        1       0.00000429      -0.00000476       0.00251897      -4.45348061
I        3.19500899       9.58501304       6.39000000        2      -0.00000685       0.00000990      -0.00000000      -2.07777359
I       -0.00015774       9.58499007       9.58727715        2      -0.00229599       0.00000673       0.00438998      -2.08228477
I        3.19501169       6.35859718       9.67324669        2      -0.00000587      -0.00438578       0.00012963      -2.07874181
Cs       6.58119210      -0.19118091      -0.00000000        0      -0.00468773       0.00468356      -0.00000000      -3.48606757
Pb       9.58500233       3.19500079       3.18755803        1      -0.00000476       0.00000429      -0.00251897      -4.45348061
I        9.58497316       3.19501024      -0.00000000        2       0.00000079      -0.00000522      -0.00000000      -2.05352013
I        6.35859718       3.19501169       3.10675331        2      -0.00438578      -0.00000587      -0.00012963      -2.07874181
I        9.58499007      -0.00015774       3.19272285        2       0.00000673      -0.00229599      -0.00438998      -2.08228477
Cs       6.41747567      -0.02747193       6.39000000        0      -0.00049264       0.00049282       0.00000000      -3.49982265
Pb       9.58500233       3.19500079       9.59244197        1      -0.00000476       0.00000429       0.00251897      -4.45348061
I        9.58501304       3.19500899       6.39000000        2       0.00000990      -0.00000685      -0.00000000      -2.07777359
I        6.35859718       3.19501169       9.67324669        2      -0.00438578      -0.00000587       0.00012963      -2.07874181
I        9.58499007      -0.00015774       9.58727715        2       0.00000673      -0.00229599       0.00438998      -2.08228477
Cs       6.58119959       6.58119959      -0.00000000        0      -0.00468915      -0.00468915      -0.00000000      -3.48607469
Pb       9.58499984       9.58499984       3.21674911        1      -0.00000445      -0.00000445      -0.00326158      -4.43826195
I        9.58498073       9.58498073      -0.00000000        2       0.00001090       0.00001090       0.00000000      -2.12626451
I        6.39015747       9.58499103       3.19272477        2       0.00229726       0.00000574      -0.00438752      -2.08227829
I        9.58499103       6.39015747       3.19272477        2       0.00000574       0.00229726      -0.00438752      -2.08227829
Cs       6.41747149       6.41747149       6.39000000        0      -0.00049290      -0.00049290       0.00000000      -3.49983432
Pb       9.58499984       9.58499984       9.56325089        1      -0.00000445      -0.00000445       0.00326158      -4.43826195
I        9.58499546       9.58499546       6.39000000        2       0.00000550       0.00000550       0.00000000      -2.07283221
I        6.39015747       9.58499103       9.58727523        2       0.00229726       0.00000574       0.00438752      -2.08227829
I        9.58499103       6.39015747       9.58727523        2       0.00000574       0.00229726       0.00438752      -2.08227829
