
  ___ ___ ___ _ _ _  
 |   |   |_  | | | | 
 | | | | | . | | | | 
 |__ |  _|___|_____|  25.7.0
 |___|_|             

User:   buyer@DESKTOP-3EQA59H
Date:   Wed Jul 15 23:52:39 2026
Arch:   x86_64
Pid:    2910
CWD:    /mnt/c/Users/Buyer/dft-si
Python: 3.11.15
gpaw:   /home/buyer/miniconda3/envs/dft/lib/python3.11/site-packages/gpaw
_gpaw:  /home/buyer/miniconda3/envs/dft/lib/python3.11/site-packages/
        _gpaw.cpython-311-x86_64-linux-gnu.so
ase:    /home/buyer/miniconda3/envs/dft/lib/python3.11/site-packages/ase (version 3.29.0)
numpy:  /home/buyer/miniconda3/envs/dft/lib/python3.11/site-packages/numpy (version 2.4.6)
scipy:  /home/buyer/miniconda3/envs/dft/lib/python3.11/site-packages/scipy (version 1.17.1)
libxc:  7.0.0
units:  Angstrom and eV
cores: 1
OpenMP: True
OMP_NUM_THREADS: 1

Input parameters:
  kpts: [2 2 2]
  mode: {ecut: 600.0,
         name: pw}
  xc: PBE

System changes: positions, numbers, cell, pbc, initial_charges, initial_magmoms 

Initialize ...

species:
  Cs:
    name: Caesium
    id: fa822afd343f47335d508b9ee4f394c3
    Z: 55.0
    valence: 9
    core: 46
    charge: 0.0
    file: /home/buyer/miniconda3/envs/dft/lib/python3.11/site-packages/gpaw_data/setups/Cs.PBE.gz
    compensation charges: {type: gauss,
                           rc: 0.33,
                           lmax: 2}
    cutoffs: {filter: 2.06,
              core: 2.51}
    projectors:
      #              energy  rcut
      - 5s(2.00)   -26.706   1.164
      - 6s(1.00)    -2.085   1.164
      - 5p(6.00)   -13.523   1.058
      -  p          13.688   1.058
      -  d           0.000   1.058
  
    # Using partial waves for Cs as LCAO basis

  Pb:
    name: Lead
    id: 66e73b13d76dc837202bcdb13fee58e6
    Z: 82.0
    valence: 14
    core: 68
    charge: 0.0
    file: /home/buyer/miniconda3/envs/dft/lib/python3.11/site-packages/gpaw_data/setups/Pb.PBE.gz
    compensation charges: {type: gauss,
                           rc: 0.38,
                           lmax: 2}
    cutoffs: {filter: 2.36,
              core: 2.43}
    projectors:
      #              energy  rcut
      - 6s(2.00)   -11.969   1.259
      - 6p(2.00)    -3.506   1.275
      - 5d(10.00)   -21.211   1.217
      -  s          15.243   1.259
      -  p          23.705   1.275
      -  d           6.001   1.217
  
    # Using partial waves for Pb as LCAO basis

  I:
    name: Iodine
    id: 91405a398e4dfe788ff04f57531604ec
    Z: 53.0
    valence: 7
    core: 46
    charge: 0.0
    file: /home/buyer/miniconda3/envs/dft/lib/python3.11/site-packages/gpaw_data/setups/I.PBE.gz
    compensation charges: {type: gauss,
                           rc: 0.37,
                           lmax: 2}
    cutoffs: {filter: 2.06,
              core: 2.90}
    projectors:
      #              energy  rcut
      - 5s(2.00)   -17.382   1.164
      - 5p(5.00)    -7.088   1.164
      -  s           9.829   1.164
      -  p          20.123   1.164
      -  d           0.000   1.164
  
    # Using partial waves for I as LCAO basis

Reference energy: -10684034.619125  # eV

Spin-paired calculation

Convergence criteria:
 Maximum [total energy] change in last 3 cyles: 0.0005 eV / valence electron
 Maximum integral of absolute [dens]ity change: 0.0001 electrons / valence electron
 Maximum integral of absolute [eigenst]ate change: 4e-08 eV^2 / valence electron
 Maximum number of scf [iter]ations: 333
 (Square brackets indicate name in SCF output, whereas a 'c' in
 the SCF output indicates the quantity has converged.)

Symmetries present (total): 4

  ( 1  0  0)  ( 1  0  0)  ( 0  1  0)  ( 0  1  0)
  ( 0  1  0)  ( 0  1  0)  ( 1  0  0)  ( 1  0  0)
  ( 0  0  1)  ( 0  0 -1)  ( 0  0  1)  ( 0  0 -1)

8 k-points: 2 x 2 x 2 Monkhorst-Pack grid
2 k-points in the irreducible part of the Brillouin zone
       k-points in crystal coordinates                weights
   0:     0.25000000   -0.25000000    0.25000000          4/8
   1:     0.25000000    0.25000000    0.25000000          4/8

Wave functions: Plane wave expansion
  Cutoff energy: 600.000 eV
  Number of coefficients (min, max): 69650, 69650
  Pulay-stress correction: 0.000000 eV/Ang^3 (de/decut=0.000000)
  Using FFTW library
  ScaLapack parameters: grid=1x1, blocksize=None
  Wavefunction extrapolation:
    Improved wavefunction reuse through dual PAW basis 

Occupation numbers: Fermi-Dirac:
  width: 0.1000  # eV
 

Eigensolver
   Davidson(niter=2) 

Densities:
  Coarse grid: 75*75*75 grid
  Fine grid: 150*150*150 grid
  Total Charge: 0.000000 

Density mixing:
  Method: separate
  Backend: pulay
  Linear mixing parameter: 0.05
  old densities: 5
  Damping of long wavelength oscillations: 50 

Hamiltonian:
  XC and Coulomb potentials evaluated on a 150*150*150 grid
  Using the PBE Exchange-Correlation functional
  External potential:
    NoExternalPotential
 

XC parameters: PBE with 2 nearest neighbor stencil

Memory estimate:
  Process memory now: 380.05 MiB
  Calculator: 995.11 MiB
    Density: 227.10 MiB
      Arrays: 83.68 MiB
      Localized functions: 111.23 MiB
      Mixer: 32.19 MiB
    Hamiltonian: 57.72 MiB
      Arrays: 54.72 MiB
      XC: 0.00 MiB
      Poisson: 0.00 MiB
      vbar: 3.01 MiB
    Wavefunctions: 710.28 MiB
      Arrays psit_nG: 433.61 MiB
      Eigensolver: 228.48 MiB
      Projections: 3.41 MiB
      Projectors: 26.57 MiB
      PW-descriptor: 18.22 MiB

Total number of cores used: 1

Number of atoms: 39
Number of atomic orbitals: 204
Number of bands in calculation: 204
Number of valence electrons: 345
Bands to converge: occupied

... initialized

Initializing position-dependent things.

Density initialized from atomic densities
Creating initial wave functions:
  204 bands from LCAO basis set

         .------------------------------.  
        /|                              |  
       / |                              |  
      /  |                              |  
     /   |                              |  
    /    |                              |  
   /   I |     Pb      I      Pb        |  
  /      |                              |  
 *       |   I              I           |  
 |       |                              |  
 | I     | Pb  I   I      Pb  I         |  
 |       |                              |  
 |   Cs  I          Cs  I               |  
 |       |                              |  
 |     I | I   Pb      I  I   Pb        |  
 |       |                              |  
 Cs      .---I--Cs----------I-----------.  
 |      /                              /   
 | I   /   Pb  I   I      Pb  I       /    
 |    /                              /     
 |   Cs  I          Cs  I           /      
 |  /                              /       
 | /                      I       /        
 |/                              /         
 Cs-------------Cs--------------*          

Atomic positions and initial magnetic moments

Positions:
   0 Cs     0.000000    0.000000    0.000000    ( 0.0000,  0.0000,  0.0000)
   1 Pb     3.195000    3.195000    3.195000    ( 0.0000,  0.0000,  0.0000)
   2 I      0.000000    3.195000    3.195000    ( 0.0000,  0.0000,  0.0000)
   3 I      3.195000    0.000000    3.195000    ( 0.0000,  0.0000,  0.0000)
   4 Cs     0.000000    0.000000    6.390000    ( 0.0000,  0.0000,  0.0000)
   5 Pb     3.195000    3.195000    9.585000    ( 0.0000,  0.0000,  0.0000)
   6 I      3.195000    3.195000    6.390000    ( 0.0000,  0.0000,  0.0000)
   7 I      0.000000    3.195000    9.585000    ( 0.0000,  0.0000,  0.0000)
   8 I      3.195000    0.000000    9.585000    ( 0.0000,  0.0000,  0.0000)
   9 Cs     0.000000    6.390000    0.000000    ( 0.0000,  0.0000,  0.0000)
  10 Pb     3.195000    9.585000    3.195000    ( 0.0000,  0.0000,  0.0000)
  11 I      3.195000    9.585000    0.000000    ( 0.0000,  0.0000,  0.0000)
  12 I      0.000000    9.585000    3.195000    ( 0.0000,  0.0000,  0.0000)
  13 I      3.195000    6.390000    3.195000    ( 0.0000,  0.0000,  0.0000)
  14 Cs     0.000000    6.390000    6.390000    ( 0.0000,  0.0000,  0.0000)
  15 Pb     3.195000    9.585000    9.585000    ( 0.0000,  0.0000,  0.0000)
  16 I      3.195000    9.585000    6.390000    ( 0.0000,  0.0000,  0.0000)
  17 I      0.000000    9.585000    9.585000    ( 0.0000,  0.0000,  0.0000)
  18 I      3.195000    6.390000    9.585000    ( 0.0000,  0.0000,  0.0000)
  19 Cs     6.390000    0.000000    0.000000    ( 0.0000,  0.0000,  0.0000)
  20 Pb     9.585000    3.195000    3.195000    ( 0.0000,  0.0000,  0.0000)
  21 I      9.585000    3.195000    0.000000    ( 0.0000,  0.0000,  0.0000)
  22 I      6.390000    3.195000    3.195000    ( 0.0000,  0.0000,  0.0000)
  23 I      9.585000    0.000000    3.195000    ( 0.0000,  0.0000,  0.0000)
  24 Cs     6.390000    0.000000    6.390000    ( 0.0000,  0.0000,  0.0000)
  25 Pb     9.585000    3.195000    9.585000    ( 0.0000,  0.0000,  0.0000)
  26 I      9.585000    3.195000    6.390000    ( 0.0000,  0.0000,  0.0000)
  27 I      6.390000    3.195000    9.585000    ( 0.0000,  0.0000,  0.0000)
  28 I      9.585000    0.000000    9.585000    ( 0.0000,  0.0000,  0.0000)
  29 Cs     6.390000    6.390000    0.000000    ( 0.0000,  0.0000,  0.0000)
  30 Pb     9.585000    9.585000    3.195000    ( 0.0000,  0.0000,  0.0000)
  31 I      9.585000    9.585000    0.000000    ( 0.0000,  0.0000,  0.0000)
  32 I      6.390000    9.585000    3.195000    ( 0.0000,  0.0000,  0.0000)
  33 I      9.585000    6.390000    3.195000    ( 0.0000,  0.0000,  0.0000)
  34 Cs     6.390000    6.390000    6.390000    ( 0.0000,  0.0000,  0.0000)
  35 Pb     9.585000    9.585000    9.585000    ( 0.0000,  0.0000,  0.0000)
  36 I      9.585000    9.585000    6.390000    ( 0.0000,  0.0000,  0.0000)
  37 I      6.390000    9.585000    9.585000    ( 0.0000,  0.0000,  0.0000)
  38 I      9.585000    6.390000    9.585000    ( 0.0000,  0.0000,  0.0000)

Unit cell:
           periodic     x           y           z      points  spacing
  1. axis:    yes   12.780000    0.000000    0.000000    75     0.1704
  2. axis:    yes    0.000000   12.780000    0.000000    75     0.1704
  3. axis:    yes    0.000000    0.000000   12.780000    75     0.1704

  Lengths:  12.780000  12.780000  12.780000
  Angles:   90.000000  90.000000  90.000000

Effective grid spacing dv^(1/3) = 0.1704

     iter     time        total  log10-change:
                         energy   eigst   dens
iter:   1 23:53:51  -113.544328
iter:   2 23:54:22  -113.008171   -1.41  -1.30
iter:   3 23:54:53  -110.800092   -2.02  -1.34
iter:   4 23:55:36  -110.448672   -1.99  -1.53
iter:   5 23:56:26  -110.380137   -2.73  -1.73
iter:   6 23:57:00  -110.328457c  -3.71  -2.10
iter:   7 23:57:40  -110.278290c  -3.42  -2.27
iter:   8 23:58:28  -110.278268c  -4.29  -2.40
iter:   9 23:59:07  -110.278031c  -4.73  -2.73
iter:  10 23:59:40  -110.279945c  -4.95  -2.77
iter:  11 00:00:22  -110.278698c  -5.43  -3.24
iter:  12 00:01:02  -110.279284c  -5.97  -3.31
iter:  13 00:01:37  -110.279313c  -6.83  -3.34
iter:  14 00:02:07  -110.279288c  -6.58  -3.34
iter:  15 00:02:36  -110.279095c  -6.47  -3.28
iter:  16 00:03:06  -110.279669c  -5.88  -3.35
iter:  17 00:03:34  -110.279853c  -6.63  -3.52
iter:  18 00:04:03  -110.279718c  -7.43c -3.48
iter:  19 00:04:32  -110.279151c  -6.09  -3.53
iter:  20 00:05:00  -110.279259c  -7.38  -3.65
iter:  21 00:05:28  -110.279311c  -6.56  -3.69
iter:  22 00:05:56  -110.279350c  -7.29  -3.84
iter:  23 00:06:24  -110.279228c  -6.66  -3.89
iter:  24 00:06:52  -110.279258c  -8.04c -4.32c

Converged after 24 iterations.

Dipole moment: (-0.199016, -0.199016, -0.000000) |e|*Ang

Energy contributions relative to reference atoms: (reference = -10684034.619125)

Kinetic:       +191.103446
Potential:     -198.979438
External:        +0.000000
XC:            -101.363427
Entropy (-ST):   -0.157280
Local:           -0.961198
SIC:             +0.000000
--------------------------
Free energy:   -110.357898
Extrapolated:  -110.279258

Showing all kpts
 Kpt  Band  Eigenvalues  Occupancy
  0   170      1.05736    2.00000
  0   171      1.14401    2.00000
  0   172      3.52709    0.97278
  0   173      4.03730    0.01146

  1   170      1.05736    2.00000
  1   171      1.14401    2.00000
  1   172      3.52709    0.97278
  1   173      4.03730    0.01146


Fermi level: 3.52165

Gap: 2.383 eV
Transition (v -> c):
  (s=0, k=1, n=171, [0.25, 0.25, 0.25]) -> (s=0, k=1, n=172, [0.25, 0.25, 0.25])
No difference between direct/indirect transitions

Forces in eV/Ang:
  0 Cs   -0.06399   -0.06399    0.00000
  1 Pb   -0.00004   -0.00004    0.03902
  2 I     0.01757   -0.00000   -0.06358
  3 I    -0.00000    0.01757   -0.06358
  4 Cs    0.00791    0.00791    0.00000
  5 Pb   -0.00004   -0.00004   -0.03902
  6 I    -0.00000   -0.00000    0.00000
  7 I     0.01757   -0.00000    0.06358
  8 I    -0.00000    0.01757    0.06358
  9 Cs   -0.06399    0.06399    0.00000
 10 Pb   -0.00004    0.00004    0.02331
 11 I    -0.00000    0.00000    0.00000
 12 I    -0.00161    0.00000   -0.00514
 13 I    -0.00000   -0.01757   -0.06358
 14 Cs    0.00791   -0.00791    0.00000
 15 Pb   -0.00004    0.00004   -0.02331
 16 I    -0.00000    0.00000    0.00000
 17 I    -0.00161    0.00000    0.00514
 18 I    -0.00000   -0.01757    0.06358
 19 Cs    0.06399   -0.06399    0.00000
 20 Pb    0.00004   -0.00004    0.02331
 21 I     0.00000   -0.00000    0.00000
 22 I    -0.01757   -0.00000   -0.06358
 23 I     0.00000   -0.00161   -0.00514
 24 Cs   -0.00791    0.00791    0.00000
 25 Pb    0.00004   -0.00004   -0.02331
 26 I     0.00000   -0.00000    0.00000
 27 I    -0.01757   -0.00000    0.06358
 28 I     0.00000   -0.00161    0.00514
 29 Cs    0.06399    0.06399    0.00000
 30 Pb    0.00004    0.00004    0.01361
 31 I     0.00000    0.00000    0.00000
 32 I     0.00161    0.00000   -0.00514
 33 I     0.00000    0.00161   -0.00514
 34 Cs   -0.00791   -0.00791    0.00000
 35 Pb    0.00004    0.00004   -0.01361
 36 I     0.00000    0.00000    0.00000
 37 I     0.00161    0.00000    0.00514
 38 I     0.00000    0.00161    0.00514

System changes: positions 

Initializing position-dependent things.

Density initialized from wave functions
         .------------------------------.  
        /|                              |  
       / |                              |  
      /  |                              |  
     /   |                      I       |  
    /    |                              |  
   /     |     Pb      I      Pb      I |  
  /      |                              |  
 *       |   I              I           |  
 |       |                              |  
 | I     | Pb  I  I       Pb  I         |  
 |       |                              |  
 |   Cs  I          Cs          I       |  
 |       |                              |  
 |       | I   Pb      I  I   Pb      I |  
 |       |                              |  
 Cs      .---I--Cs-------Cs-I-----------Cs 
 |      /                              /   
 | I   /   Pb  I  I       Pb  I       /    
 |    /                              /     
 |   /   I           Cs             /s     
 |  /                              /       
 | /                      I       /        
 |/                              /         
 *------------------------------*          

Atomic positions and initial magnetic moments

Positions:
   0 Cs    -0.000914   -0.000914    0.000000    ( 0.0000,  0.0000,  0.0000)
   1 Pb     3.194999    3.194999    3.195557    ( 0.0000,  0.0000,  0.0000)
   2 I      0.000251    3.195000    3.194092    ( 0.0000,  0.0000,  0.0000)
   3 I      3.195000    0.000251    3.194092    ( 0.0000,  0.0000,  0.0000)
   4 Cs     0.000113    0.000113    6.390000    ( 0.0000,  0.0000,  0.0000)
   5 Pb     3.194999    3.194999    9.584443    ( 0.0000,  0.0000,  0.0000)
   6 I      3.195000    3.195000    6.390000    ( 0.0000,  0.0000,  0.0000)
   7 I      0.000251    3.195000    9.585908    ( 0.0000,  0.0000,  0.0000)
   8 I      3.195000    0.000251    9.585908    ( 0.0000,  0.0000,  0.0000)
   9 Cs    -0.000914    6.390914    0.000000    ( 0.0000,  0.0000,  0.0000)
  10 Pb     3.194999    9.585001    3.195333    ( 0.0000,  0.0000,  0.0000)
  11 I      3.195000    9.585000    0.000000    ( 0.0000,  0.0000,  0.0000)
  12 I     -0.000023    9.585000    3.194927    ( 0.0000,  0.0000,  0.0000)
  13 I      3.195000    6.389749    3.194092    ( 0.0000,  0.0000,  0.0000)
  14 Cs     0.000113    6.389887    6.390000    ( 0.0000,  0.0000,  0.0000)
  15 Pb     3.194999    9.585001    9.584667    ( 0.0000,  0.0000,  0.0000)
  16 I      3.195000    9.585000    6.390000    ( 0.0000,  0.0000,  0.0000)
  17 I     -0.000023    9.585000    9.585073    ( 0.0000,  0.0000,  0.0000)
  18 I      3.195000    6.389749    9.585908    ( 0.0000,  0.0000,  0.0000)
  19 Cs     6.390914   -0.000914    0.000000    ( 0.0000,  0.0000,  0.0000)
  20 Pb     9.585001    3.194999    3.195333    ( 0.0000,  0.0000,  0.0000)
  21 I      9.585000    3.195000    0.000000    ( 0.0000,  0.0000,  0.0000)
  22 I      6.389749    3.195000    3.194092    ( 0.0000,  0.0000,  0.0000)
  23 I      9.585000   -0.000023    3.194927    ( 0.0000,  0.0000,  0.0000)
  24 Cs     6.389887    0.000113    6.390000    ( 0.0000,  0.0000,  0.0000)
  25 Pb     9.585001    3.194999    9.584667    ( 0.0000,  0.0000,  0.0000)
  26 I      9.585000    3.195000    6.390000    ( 0.0000,  0.0000,  0.0000)
  27 I      6.389749    3.195000    9.585908    ( 0.0000,  0.0000,  0.0000)
  28 I      9.585000   -0.000023    9.585073    ( 0.0000,  0.0000,  0.0000)
  29 Cs     6.390914    6.390914    0.000000    ( 0.0000,  0.0000,  0.0000)
  30 Pb     9.585001    9.585001    3.195194    ( 0.0000,  0.0000,  0.0000)
  31 I      9.585000    9.585000    0.000000    ( 0.0000,  0.0000,  0.0000)
  32 I      6.390023    9.585000    3.194927    ( 0.0000,  0.0000,  0.0000)
  33 I      9.585000    6.390023    3.194927    ( 0.0000,  0.0000,  0.0000)
  34 Cs     6.389887    6.389887    6.390000    ( 0.0000,  0.0000,  0.0000)
  35 Pb     9.585001    9.585001    9.584806    ( 0.0000,  0.0000,  0.0000)
  36 I      9.585000    9.585000    6.390000    ( 0.0000,  0.0000,  0.0000)
  37 I      6.390023    9.585000    9.585073    ( 0.0000,  0.0000,  0.0000)
  38 I      9.585000    6.390023    9.585073    ( 0.0000,  0.0000,  0.0000)

Unit cell:
           periodic     x           y           z      points  spacing
  1. axis:    yes   12.780000    0.000000    0.000000    75     0.1704
  2. axis:    yes    0.000000   12.780000    0.000000    75     0.1704
  3. axis:    yes    0.000000    0.000000   12.780000    75     0.1704

  Lengths:  12.780000  12.780000  12.780000
  Angles:   90.000000  90.000000  90.000000

Effective grid spacing dv^(1/3) = 0.1704

     iter     time        total  log10-change:
                         energy   eigst   dens
iter:   1 00:07:36  -110.280158   -5.75
iter:   2 00:08:05  -110.280169   -7.07  -4.03c
iter:   3 00:08:32  -110.280259c  -6.46  -4.09c
iter:   4 00:09:00  -110.280219c  -7.94c -4.59c

Converged after 4 iterations.

Dipole moment: (-0.003599, -0.003599, 0.000000) |e|*Ang

Energy contributions relative to reference atoms: (reference = -10684034.619125)

Kinetic:       +191.134079
Potential:     -199.023492
External:        +0.000000
XC:            -101.375829
Entropy (-ST):   -0.157461
Local:           -0.936246
SIC:             +0.000000
--------------------------
Free energy:   -110.358950
Extrapolated:  -110.280219

Showing all kpts
 Kpt  Band  Eigenvalues  Occupancy
  0   170      1.05684    2.00000
  0   171      1.14398    2.00000
  0   172      3.52813    0.97247
  0   173      4.03708    0.01159

  1   170      1.05684    2.00000
  1   171      1.14398    2.00000
  1   172      3.52813    0.97247
  1   173      4.03708    0.01159


Fermi level: 3.52262

Gap: 2.384 eV
Transition (v -> c):
  (s=0, k=0, n=171, [0.25, -0.25, 0.25]) -> (s=0, k=0, n=172, [0.25, -0.25, 0.25])
No difference between direct/indirect transitions

Forces in eV/Ang:
  0 Cs   -0.06208   -0.06208    0.00000
  1 Pb   -0.00003   -0.00003    0.01543
  2 I     0.01702    0.00000   -0.07286
  3 I     0.00000    0.01702   -0.07286
  4 Cs    0.00368    0.00368    0.00000
  5 Pb   -0.00003   -0.00003   -0.01543
  6 I     0.00000    0.00000    0.00000
  7 I     0.01702    0.00000    0.07286
  8 I     0.00000    0.01702    0.07286
  9 Cs   -0.06208    0.06208    0.00000
 10 Pb   -0.00003    0.00003    0.01341
 11 I     0.00000   -0.00000    0.00000
 12 I    -0.00368   -0.00000   -0.00756
 13 I     0.00000   -0.01702   -0.07286
 14 Cs    0.00368   -0.00368    0.00000
 15 Pb   -0.00003    0.00003   -0.01341
 16 I     0.00000   -0.00000    0.00000
 17 I    -0.00368   -0.00000    0.00756
 18 I     0.00000   -0.01702    0.07286
 19 Cs    0.06208   -0.06208    0.00000
 20 Pb    0.00003   -0.00003    0.01341
 21 I    -0.00000    0.00000    0.00000
 22 I    -0.01702    0.00000   -0.07286
 23 I    -0.00000   -0.00368   -0.00756
 24 Cs   -0.00368    0.00368    0.00000
 25 Pb    0.00003   -0.00003   -0.01341
 26 I    -0.00000    0.00000    0.00000
 27 I    -0.01702    0.00000    0.07286
 28 I    -0.00000   -0.00368    0.00756
 29 Cs    0.06208    0.06208    0.00000
 30 Pb    0.00003    0.00003    0.01128
 31 I    -0.00000   -0.00000    0.00000
 32 I     0.00368   -0.00000   -0.00756
 33 I    -0.00000    0.00368   -0.00756
 34 Cs   -0.00368   -0.00368    0.00000
 35 Pb    0.00003    0.00003   -0.01128
 36 I    -0.00000   -0.00000    0.00000
 37 I     0.00368   -0.00000    0.00756
 38 I    -0.00000    0.00368    0.00756

System changes: positions 

Initializing position-dependent things.

Density initialized from wave functions
         .------------------------------.  
        /|                              |  
       / |                              |  
      /  |                              |  
     /   |                      I       |  
    /    |                              |  
   /     |     Pb      I      Pb      I |  
  /      |                              |  
 *       |   I              I           |  
 |       |                              |  
 | I     | Pb  I  I       Pb  I         |  
 |       |                              |  
 |   Cs  I          Cs          I       |  
 |       |                              |  
 |       | I   Pb      I  I   Pb      I |  
 |       |                              |  
 Cs      .---I--Cs-------Cs-I-----------Cs 
 |      /                              /   
 | I   /   Pb  I  I       Pb  I       /    
 |    /                              /     
 |   /   I           Cs             /s     
 |  /                              /       
 | /                      I       /        
 |/                              /         
 *------------------------------*          

Atomic positions and initial magnetic moments

Positions:
   0 Cs    -0.142335   -0.142335   -0.000000    ( 0.0000,  0.0000,  0.0000)
   1 Pb     3.194903    3.194903    3.300969    ( 0.0000,  0.0000,  0.0000)
   2 I      0.039123    3.194993    3.063114    ( 0.0000,  0.0000,  0.0000)
   3 I      3.194993    0.039123    3.063114    ( 0.0000,  0.0000,  0.0000)
   4 Cs     0.021012    0.021012    6.390000    ( 0.0000,  0.0000,  0.0000)
   5 Pb     3.194903    3.194903    9.479031    ( 0.0000,  0.0000,  0.0000)
   6 I      3.194993    3.194993    6.390000    ( 0.0000,  0.0000,  0.0000)
   7 I      0.039123    3.194993    9.716886    ( 0.0000,  0.0000,  0.0000)
   8 I      3.194993    0.039123    9.716886    ( 0.0000,  0.0000,  0.0000)
   9 Cs    -0.142334    6.532335   -0.000000    ( 0.0000,  0.0000,  0.0000)
  10 Pb     3.194903    9.585095    3.254725    ( 0.0000,  0.0000,  0.0000)
  11 I      3.194993    9.585007    0.000000    ( 0.0000,  0.0000,  0.0000)
  12 I     -0.001770    9.585007    3.185756    ( 0.0000,  0.0000,  0.0000)
  13 I      3.194994    6.350876    3.063114    ( 0.0000,  0.0000,  0.0000)
  14 Cs     0.021012    6.368987    6.390000    ( 0.0000,  0.0000,  0.0000)
  15 Pb     3.194903    9.585095    9.525275    ( 0.0000,  0.0000,  0.0000)
  16 I      3.194994    9.585007    6.390000    ( 0.0000,  0.0000,  0.0000)
  17 I     -0.001770    9.585007    9.594244    ( 0.0000,  0.0000,  0.0000)
  18 I      3.194994    6.350876    9.716886    ( 0.0000,  0.0000,  0.0000)
  19 Cs     6.532335   -0.142334    0.000000    ( 0.0000,  0.0000,  0.0000)
  20 Pb     9.585095    3.194903    3.254725    ( 0.0000,  0.0000,  0.0000)
  21 I      9.585007    3.194993    0.000000    ( 0.0000,  0.0000,  0.0000)
  22 I      6.350876    3.194994    3.063114    ( 0.0000,  0.0000,  0.0000)
  23 I      9.585007   -0.001770    3.185756    ( 0.0000,  0.0000,  0.0000)
  24 Cs     6.368987    0.021012    6.390000    ( 0.0000,  0.0000,  0.0000)
  25 Pb     9.585095    3.194903    9.525275    ( 0.0000,  0.0000,  0.0000)
  26 I      9.585007    3.194994    6.390000    ( 0.0000,  0.0000,  0.0000)
  27 I      6.350876    3.194994    9.716886    ( 0.0000,  0.0000,  0.0000)
  28 I      9.585007   -0.001770    9.594244    ( 0.0000,  0.0000,  0.0000)
  29 Cs     6.532334    6.532334    0.000000    ( 0.0000,  0.0000,  0.0000)
  30 Pb     9.585097    9.585097    3.226919    ( 0.0000,  0.0000,  0.0000)
  31 I      9.585007    9.585007    0.000000    ( 0.0000,  0.0000,  0.0000)
  32 I      6.391770    9.585006    3.185756    ( 0.0000,  0.0000,  0.0000)
  33 I      9.585006    6.391770    3.185756    ( 0.0000,  0.0000,  0.0000)
  34 Cs     6.368987    6.368987    6.390000    ( 0.0000,  0.0000,  0.0000)
  35 Pb     9.585097    9.585097    9.553081    ( 0.0000,  0.0000,  0.0000)
  36 I      9.585006    9.585006    6.390000    ( 0.0000,  0.0000,  0.0000)
  37 I      6.391770    9.585006    9.594244    ( 0.0000,  0.0000,  0.0000)
  38 I      9.585006    6.391770    9.594244    ( 0.0000,  0.0000,  0.0000)

Unit cell:
           periodic     x           y           z      points  spacing
  1. axis:    yes   12.780000    0.000000    0.000000    75     0.1704
  2. axis:    yes    0.000000   12.780000    0.000000    75     0.1704
  3. axis:    yes    0.000000    0.000000   12.780000    75     0.1704

  Lengths:  12.780000  12.780000  12.780000
  Angles:   90.000000  90.000000  90.000000

Effective grid spacing dv^(1/3) = 0.1704

     iter     time        total  log10-change:
                         energy   eigst   dens
iter:   1 00:09:43  -110.415836   -1.80
iter:   2 00:10:12  -110.330439   -3.03  -2.11
iter:   3 00:10:40  -110.278057c  -3.46  -2.22
iter:   4 00:11:09  -110.268594c  -4.05  -2.49
iter:   5 00:11:37  -110.258617c  -4.14  -2.65
iter:   6 00:12:05  -110.252104c  -4.85  -2.90
iter:   7 00:12:33  -110.255806c  -4.96  -2.95
iter:   8 00:13:01  -110.256624c  -5.81  -3.30
iter:   9 00:13:30  -110.256795c  -5.70  -3.39
iter:  10 00:13:59  -110.256888c  -6.61  -3.77
iter:  11 00:14:28  -110.256851c  -7.44c -3.86
iter:  12 00:14:56  -110.256796c  -7.04  -3.93
iter:  13 00:15:23  -110.256930c  -7.26  -4.13c
iter:  14 00:15:51  -110.256944c  -8.01c -4.35c

Converged after 14 iterations.

Dipole moment: (25.127618, 25.127618, 0.000000) |e|*Ang

Energy contributions relative to reference atoms: (reference = -10684034.619125)

Kinetic:       +195.756840
Potential:     -202.892126
External:        +0.000000
XC:            -102.098710
Entropy (-ST):   -0.197864
Local:           -0.924017
SIC:             +0.000000
--------------------------
Free energy:   -110.355876
Extrapolated:  -110.256944

Showing all kpts
 Kpt  Band  Eigenvalues  Occupancy
  0   170      1.07150    2.00000
  0   171      1.22136    2.00000
  0   172      3.68114    0.88909
  0   173      4.03284    0.04642

  1   170      1.07150    2.00000
  1   171      1.22136    2.00000
  1   172      3.68114    0.88909
  1   173      4.03284    0.04642


Fermi level: 3.65887

Gap: 2.460 eV
Transition (v -> c):
  (s=0, k=0, n=171, [0.25, -0.25, 0.25]) -> (s=0, k=1, n=172, [0.25, 0.25, 0.25])
Direct/indirect transitions are different
Direct gap: 2.460 eV
Transition at: (s=0, k=1, n=171, [0.25, 0.25, 0.25])

Forces in eV/Ang:
  0 Cs   -0.01120   -0.01120    0.00000
  1 Pb    0.00039    0.00039   -0.28524
  2 I    -0.16094   -0.00006   -0.01681
  3 I    -0.00006   -0.16094   -0.01681
  4 Cs   -0.00535   -0.00535    0.00000
  5 Pb    0.00039    0.00039    0.28524
  6 I    -0.00008   -0.00008    0.00000
  7 I    -0.16094   -0.00006    0.01681
  8 I    -0.00006   -0.16094    0.01681
  9 Cs   -0.01119    0.01119    0.00000
 10 Pb    0.00035   -0.00026   -0.33058
 11 I    -0.00006    0.00006    0.00000
 12 I    -0.00413    0.00005    0.01541
 13 I    -0.00006    0.16083   -0.01677
 14 Cs   -0.00536    0.00535    0.00000
 15 Pb    0.00035   -0.00026    0.33058
 16 I    -0.00005    0.00005    0.00000
 17 I    -0.00413    0.00005   -0.01541
 18 I    -0.00006    0.16083    0.01677
 19 Cs    0.01119   -0.01119    0.00000
 20 Pb   -0.00026    0.00035   -0.33058
 21 I     0.00006   -0.00006    0.00000
 22 I     0.16083   -0.00006   -0.01677
 23 I     0.00005   -0.00413    0.01541
 24 Cs    0.00535   -0.00536    0.00000
 25 Pb   -0.00026    0.00035    0.33058
 26 I     0.00005   -0.00005    0.00000
 27 I     0.16083   -0.00006    0.01677
 28 I     0.00005   -0.00413   -0.01541
 29 Cs    0.01119    0.01119    0.00000
 30 Pb   -0.00034   -0.00034   -0.05124
 31 I     0.00006    0.00006    0.00000
 32 I     0.00413    0.00006    0.01542
 33 I     0.00006    0.00413    0.01542
 34 Cs    0.00535    0.00535    0.00000
 35 Pb   -0.00034   -0.00034    0.05124
 36 I     0.00005    0.00005    0.00000
 37 I     0.00413    0.00006   -0.01542
 38 I     0.00006    0.00413   -0.01542

System changes: positions 

Initializing position-dependent things.

Density initialized from wave functions
         .------------------------------.  
        /|                              |  
       / |                              |  
      /  |                              |  
     /   |                      I       |  
    /    |                              |  
   /     |     Pb      I      Pb      I |  
  /      |                              |  
 *       |   I              I           |  
 |       |                              |  
 | I     | Pb  I  I       Pb  I         |  
 |       |                              |  
 |   Cs  I          Cs          I       |  
 |       |                              |  
 |       | I   Pb      I  I   Pb      I |  
 |       |                              |  
 Cs      .---I--Cs-------Cs-I-----------Cs 
 |      /                              /   
 | I   /   Pb  I  I       Pb  I       /    
 |    /                              /     
 |   /   I           Cs             /s     
 |  /                              /       
 | /                      I       /        
 |/                              /         
 *------------------------------*          

Atomic positions and initial magnetic moments

Positions:
   0 Cs    -0.072302   -0.072302   -0.000000    ( 0.0000,  0.0000,  0.0000)
   1 Pb     3.194953    3.194953    3.246435    ( 0.0000,  0.0000,  0.0000)
   2 I      0.018720    3.194996    3.127796    ( 0.0000,  0.0000,  0.0000)
   3 I      3.194996    0.018720    3.127796    ( 0.0000,  0.0000,  0.0000)
   4 Cs     0.010566    0.010566    6.390000    ( 0.0000,  0.0000,  0.0000)
   5 Pb     3.194953    3.194953    9.533565    ( 0.0000,  0.0000,  0.0000)
   6 I      3.194996    3.194996    6.390000    ( 0.0000,  0.0000,  0.0000)
   7 I      0.018720    3.194996    9.652204    ( 0.0000,  0.0000,  0.0000)
   8 I      3.194996    0.018720    9.652204    ( 0.0000,  0.0000,  0.0000)
   9 Cs    -0.072301    6.462302    0.000000    ( 0.0000,  0.0000,  0.0000)
  10 Pb     3.194953    9.585046    3.222846    ( 0.0000,  0.0000,  0.0000)
  11 I      3.194996    9.585004    0.000000    ( 0.0000,  0.0000,  0.0000)
  12 I     -0.000958    9.585004    3.190380    ( 0.0000,  0.0000,  0.0000)
  13 I      3.194997    6.371279    3.127796    ( 0.0000,  0.0000,  0.0000)
  14 Cs     0.010566    6.379434    6.390000    ( 0.0000,  0.0000,  0.0000)
  15 Pb     3.194953    9.585046    9.557154    ( 0.0000,  0.0000,  0.0000)
  16 I      3.194996    9.585004    6.390000    ( 0.0000,  0.0000,  0.0000)
  17 I     -0.000958    9.585004    9.589620    ( 0.0000,  0.0000,  0.0000)
  18 I      3.194997    6.371279    9.652204    ( 0.0000,  0.0000,  0.0000)
  19 Cs     6.462302   -0.072301   -0.000000    ( 0.0000,  0.0000,  0.0000)
  20 Pb     9.585046    3.194953    3.222846    ( 0.0000,  0.0000,  0.0000)
  21 I      9.585004    3.194996    0.000000    ( 0.0000,  0.0000,  0.0000)
  22 I      6.371279    3.194997    3.127796    ( 0.0000,  0.0000,  0.0000)
  23 I      9.585004   -0.000958    3.190380    ( 0.0000,  0.0000,  0.0000)
  24 Cs     6.379434    0.010566    6.390000    ( 0.0000,  0.0000,  0.0000)
  25 Pb     9.585046    3.194953    9.557154    ( 0.0000,  0.0000,  0.0000)
  26 I      9.585004    3.194996    6.390000    ( 0.0000,  0.0000,  0.0000)
  27 I      6.371279    3.194997    9.652204    ( 0.0000,  0.0000,  0.0000)
  28 I      9.585004   -0.000958    9.589620    ( 0.0000,  0.0000,  0.0000)
  29 Cs     6.462301    6.462301    0.000000    ( 0.0000,  0.0000,  0.0000)
  30 Pb     9.585047    9.585047    3.210808    ( 0.0000,  0.0000,  0.0000)
  31 I      9.585004    9.585004   -0.000000    ( 0.0000,  0.0000,  0.0000)
  32 I      6.390958    9.585003    3.190380    ( 0.0000,  0.0000,  0.0000)
  33 I      9.585003    6.390958    3.190380    ( 0.0000,  0.0000,  0.0000)
  34 Cs     6.379434    6.379434    6.390000    ( 0.0000,  0.0000,  0.0000)
  35 Pb     9.585047    9.585047    9.569192    ( 0.0000,  0.0000,  0.0000)
  36 I      9.585004    9.585004    6.390000    ( 0.0000,  0.0000,  0.0000)
  37 I      6.390958    9.585003    9.589620    ( 0.0000,  0.0000,  0.0000)
  38 I      9.585003    6.390958    9.589620    ( 0.0000,  0.0000,  0.0000)

Unit cell:
           periodic     x           y           z      points  spacing
  1. axis:    yes   12.780000    0.000000    0.000000    75     0.1704
  2. axis:    yes    0.000000   12.780000    0.000000    75     0.1704
  3. axis:    yes    0.000000    0.000000   12.780000    75     0.1704

  Lengths:  12.780000  12.780000  12.780000
  Angles:   90.000000  90.000000  90.000000

Effective grid spacing dv^(1/3) = 0.1704

     iter     time        total  log10-change:
                         energy   eigst   dens
iter:   1 00:16:34  -110.372098   -2.35
iter:   2 00:17:01  -110.356921   -3.57  -2.47
iter:   3 00:17:29  -110.310270c  -3.59  -2.52
iter:   4 00:17:56  -110.316977c  -4.93  -2.89
iter:   5 00:18:25  -110.314504c  -5.19  -2.90
iter:   6 00:18:53  -110.313606c  -5.15  -3.10
iter:   7 00:19:22  -110.312799c  -5.37  -3.28
iter:   8 00:19:50  -110.311711c  -5.89  -3.64
iter:   9 00:20:19  -110.311620c  -6.66  -3.74
iter:  10 00:20:46  -110.312124c  -6.56  -3.77
iter:  11 00:21:15  -110.312092c  -7.89c -4.22c

Converged after 11 iterations.

Dipole moment: (14.358061, 14.358061, 0.000000) |e|*Ang

Energy contributions relative to reference atoms: (reference = -10684034.619125)

Kinetic:       +193.151271
Potential:     -200.730877
External:        +0.000000
XC:            -101.728888
Entropy (-ST):   -0.177115
Local:           -0.915040
SIC:             +0.000000
--------------------------
Free energy:   -110.400650
Extrapolated:  -110.312092

Showing all kpts
 Kpt  Band  Eigenvalues  Occupancy
  0   170      1.04776    2.00000
  0   171      1.16148    2.00000
  0   172      3.62079    0.93510
  0   173      4.03484    0.02756

  1   170      1.04776    2.00000
  1   171      1.16148    2.00000
  1   172      3.62079    0.93510
  1   173      4.03484    0.02756


Fermi level: 3.60779

Gap: 2.459 eV
Transition (v -> c):
  (s=0, k=0, n=171, [0.25, -0.25, 0.25]) -> (s=0, k=1, n=172, [0.25, 0.25, 0.25])
Direct/indirect transitions are different
Direct gap: 2.459 eV
Transition at: (s=0, k=0, n=171, [0.25, -0.25, 0.25])

Forces in eV/Ang:
  0 Cs   -0.04214   -0.04214    0.00000
  1 Pb    0.00015    0.00015   -0.11209
  2 I    -0.08040   -0.00002   -0.04929
  3 I    -0.00002   -0.08040   -0.04929
  4 Cs    0.00073    0.00073    0.00000
  5 Pb    0.00015    0.00015    0.11209
  6 I    -0.00004   -0.00004    0.00000
  7 I    -0.08040   -0.00002    0.04929
  8 I    -0.00002   -0.08040    0.04929
  9 Cs   -0.04213    0.04213    0.00000
 10 Pb    0.00013   -0.00011   -0.14280
 11 I    -0.00003    0.00002    0.00000
 12 I    -0.00236    0.00003   -0.00192
 13 I    -0.00002    0.08037   -0.04929
 14 Cs    0.00073   -0.00073    0.00000
 15 Pb    0.00013   -0.00011    0.14280
 16 I    -0.00002    0.00003    0.00000
 17 I    -0.00236    0.00003    0.00192
 18 I    -0.00002    0.08037    0.04929
 19 Cs    0.04213   -0.04213    0.00000
 20 Pb   -0.00011    0.00013   -0.14280
 21 I     0.00002   -0.00003    0.00000
 22 I     0.08037   -0.00002   -0.04929
 23 I     0.00003   -0.00236   -0.00192
 24 Cs   -0.00073    0.00073    0.00000
 25 Pb   -0.00011    0.00013    0.14280
 26 I     0.00003   -0.00002    0.00000
 27 I     0.08037   -0.00002    0.04929
 28 I     0.00003   -0.00236    0.00192
 29 Cs    0.04213    0.04213    0.00000
 30 Pb   -0.00013   -0.00013   -0.01838
 31 I     0.00003    0.00003    0.00000
 32 I     0.00236    0.00003   -0.00192
 33 I     0.00003    0.00236   -0.00192
 34 Cs   -0.00073   -0.00073    0.00000
 35 Pb   -0.00013   -0.00013    0.01838
 36 I     0.00003    0.00003    0.00000
 37 I     0.00236    0.00003    0.00192
 38 I     0.00003    0.00236    0.00192

System changes: positions 

Initializing position-dependent things.

Density initialized from wave functions
         .------------------------------.  
        /|                              |  
       / |                              |  
      /  |                              |  
     /   |                      I       |  
    /    |                              |  
   /     |     Pb      I      Pb      I |  
  /      |                              |  
 *       |   I              I           |  
 |       |                              |  
 | I     | Pb  I  I       Pb  I         |  
 |       |                              |  
 |   Cs  I          Cs          I       |  
 |       |                              |  
 |       | I   Pb      I  I   Pb      I |  
 |       |                              |  
 Cs      .---I--Cs-------Cs-I-----------Cs 
 |      /                              /   
 | I   /   Pb  I  I       Pb  I       /    
 |    /                              /     
 |   /   I           Cs             /s     
 |  /                              /       
 | /                      I       /        
 |/                              /         
 *------------------------------*          

Atomic positions and initial magnetic moments

Positions:
   0 Cs    -0.077826   -0.077826   -0.000000    ( 0.0000,  0.0000,  0.0000)
   1 Pb     3.194952    3.194952    3.249770    ( 0.0000,  0.0000,  0.0000)
   2 I      0.018867    3.194995    3.123229    ( 0.0000,  0.0000,  0.0000)
   3 I      3.194995    0.018867    3.123229    ( 0.0000,  0.0000,  0.0000)
   4 Cs     0.011550    0.011550    6.390000    ( 0.0000,  0.0000,  0.0000)
   5 Pb     3.194952    3.194952    9.530230    ( 0.0000,  0.0000,  0.0000)
   6 I      3.194995    3.194995    6.390000    ( 0.0000,  0.0000,  0.0000)
   7 I      0.018867    3.194995    9.656771    ( 0.0000,  0.0000,  0.0000)
   8 I      3.194995    0.018867    9.656771    ( 0.0000,  0.0000,  0.0000)
   9 Cs    -0.077825    6.467826    0.000000    ( 0.0000,  0.0000,  0.0000)
  10 Pb     3.194952    9.585048    3.223302    ( 0.0000,  0.0000,  0.0000)
  11 I      3.194995    9.585004    0.000000    ( 0.0000,  0.0000,  0.0000)
  12 I     -0.000923    9.585005    3.190204    ( 0.0000,  0.0000,  0.0000)
  13 I      3.194996    6.371132    3.123229    ( 0.0000,  0.0000,  0.0000)
  14 Cs     0.011550    6.378450    6.390000    ( 0.0000,  0.0000,  0.0000)
  15 Pb     3.194952    9.585048    9.556698    ( 0.0000,  0.0000,  0.0000)
  16 I      3.194996    9.585004    6.390000    ( 0.0000,  0.0000,  0.0000)
  17 I     -0.000923    9.585005    9.589796    ( 0.0000,  0.0000,  0.0000)
  18 I      3.194996    6.371132    9.656771    ( 0.0000,  0.0000,  0.0000)
  19 Cs     6.467826   -0.077825    0.000000    ( 0.0000,  0.0000,  0.0000)
  20 Pb     9.585048    3.194952    3.223302    ( 0.0000,  0.0000,  0.0000)
  21 I      9.585004    3.194995    0.000000    ( 0.0000,  0.0000,  0.0000)
  22 I      6.371132    3.194996    3.123229    ( 0.0000,  0.0000,  0.0000)
  23 I      9.585005   -0.000923    3.190204    ( 0.0000,  0.0000,  0.0000)
  24 Cs     6.378450    0.011550    6.390000    ( 0.0000,  0.0000,  0.0000)
  25 Pb     9.585048    3.194952    9.556698    ( 0.0000,  0.0000,  0.0000)
  26 I      9.585004    3.194996    6.390000    ( 0.0000,  0.0000,  0.0000)
  27 I      6.371132    3.194996    9.656771    ( 0.0000,  0.0000,  0.0000)
  28 I      9.585005   -0.000923    9.589796    ( 0.0000,  0.0000,  0.0000)
  29 Cs     6.467825    6.467825    0.000000    ( 0.0000,  0.0000,  0.0000)
  30 Pb     9.585048    9.585048    3.211747    ( 0.0000,  0.0000,  0.0000)
  31 I      9.585005    9.585005   -0.000000    ( 0.0000,  0.0000,  0.0000)
  32 I      6.390923    9.585004    3.190205    ( 0.0000,  0.0000,  0.0000)
  33 I      9.585004    6.390923    3.190205    ( 0.0000,  0.0000,  0.0000)
  34 Cs     6.378450    6.378450    6.390000    ( 0.0000,  0.0000,  0.0000)
  35 Pb     9.585048    9.585048    9.568253    ( 0.0000,  0.0000,  0.0000)
  36 I      9.585004    9.585004    6.390000    ( 0.0000,  0.0000,  0.0000)
  37 I      6.390923    9.585004    9.589795    ( 0.0000,  0.0000,  0.0000)
  38 I      9.585004    6.390923    9.589795    ( 0.0000,  0.0000,  0.0000)

Unit cell:
           periodic     x           y           z      points  spacing
  1. axis:    yes   12.780000    0.000000    0.000000    75     0.1704
  2. axis:    yes    0.000000   12.780000    0.000000    75     0.1704
  3. axis:    yes    0.000000    0.000000   12.780000    75     0.1704

  Lengths:  12.780000  12.780000  12.780000
  Angles:   90.000000  90.000000  90.000000

Effective grid spacing dv^(1/3) = 0.1704

     iter     time        total  log10-change:
                         energy   eigst   dens
iter:   1 00:21:56  -110.312243   -4.80
iter:   2 00:22:26  -110.312539   -6.14  -3.68
iter:   3 00:22:53  -110.313569c  -6.29  -3.75
iter:   4 00:23:22  -110.313405c  -7.57c -4.13c

Converged after 4 iterations.

Dipole moment: (15.596279, 15.596279, 0.000000) |e|*Ang

Energy contributions relative to reference atoms: (reference = -10684034.619125)

Kinetic:       +193.406445
Potential:     -200.936383
External:        +0.000000
XC:            -101.753775
Entropy (-ST):   -0.178384
Local:           -0.940500
SIC:             +0.000000
--------------------------
Free energy:   -110.402597
Extrapolated:  -110.313405

Showing all kpts
 Kpt  Band  Eigenvalues  Occupancy
  0   170      1.04852    2.00000
  0   171      1.16361    2.00000
  0   172      3.62519    0.93247
  0   173      4.03474    0.02867

  1   170      1.04852    2.00000
  1   171      1.16361    2.00000
  1   172      3.62519    0.93247
  1   173      4.03474    0.02867


Fermi level: 3.61167

Gap: 2.462 eV
Transition (v -> c):
  (s=0, k=0, n=171, [0.25, -0.25, 0.25]) -> (s=0, k=1, n=172, [0.25, 0.25, 0.25])
Direct/indirect transitions are different
Direct gap: 2.462 eV
Transition at: (s=0, k=0, n=171, [0.25, -0.25, 0.25])

Forces in eV/Ang:
  0 Cs   -0.03193   -0.03193    0.00000
  1 Pb    0.00021    0.00021   -0.14865
  2 I    -0.08188   -0.00001   -0.05561
  3 I    -0.00001   -0.08188   -0.05561
  4 Cs   -0.00411   -0.00411    0.00000
  5 Pb    0.00021    0.00021    0.14865
  6 I    -0.00003   -0.00003    0.00000
  7 I    -0.08188   -0.00001    0.05561
  8 I    -0.00001   -0.08188    0.05561
  9 Cs   -0.03193    0.03193    0.00000
 10 Pb    0.00019   -0.00016   -0.14877
 11 I    -0.00002    0.00001    0.00000
 12 I    -0.00450    0.00001    0.00358
 13 I    -0.00001    0.08185   -0.05560
 14 Cs   -0.00411    0.00411    0.00000
 15 Pb    0.00019   -0.00016    0.14877
 16 I    -0.00001    0.00001    0.00000
 17 I    -0.00450    0.00001   -0.00358
 18 I    -0.00001    0.08185    0.05560
 19 Cs    0.03193   -0.03193    0.00000
 20 Pb   -0.00016    0.00019   -0.14877
 21 I     0.00001   -0.00002    0.00000
 22 I     0.08185   -0.00001   -0.05560
 23 I     0.00001   -0.00450    0.00358
 24 Cs    0.00411   -0.00411    0.00000
 25 Pb   -0.00016    0.00019    0.14877
 26 I     0.00001   -0.00001    0.00000
 27 I     0.08185   -0.00001    0.05560
 28 I     0.00001   -0.00450   -0.00358
 29 Cs    0.03193    0.03193    0.00000
 30 Pb   -0.00019   -0.00019   -0.01626
 31 I     0.00001    0.00001    0.00000
 32 I     0.00450    0.00001    0.00358
 33 I     0.00001    0.00450    0.00358
 34 Cs    0.00411    0.00411    0.00000
 35 Pb   -0.00019   -0.00019    0.01626
 36 I     0.00001    0.00001    0.00000
 37 I     0.00450    0.00001   -0.00358
 38 I     0.00001    0.00450   -0.00358

System changes: positions 

Initializing position-dependent things.

Density initialized from wave functions
         .------------------------------.  
        /|                              |  
       / |                              |  
      /  |                              |  
     /   |                      I       |  
    /    |                              |  
   /     |     Pb      I      Pb      I |  
  /      |                              |  
 *       |   I              I           |  
 |       |                              |  
 | I     | Pb  I  I       Pb  I         |  
 |       |                              |  
 |   Cs  I          Cs          I       |  
 |       |                              |  
 |       | I   Pb      I  I   Pb      I |  
 |       |                              |  
 Cs      .---I--Cs-------Cs-I-----------Cs 
 |      /                              /   
 | I   /   Pb  I  I       Pb  I       /    
 |    /                              /     
 |   /   I           Cs             /s     
 |  /                              /       
 | /                      I       /        
 |/                              /         
 *------------------------------*          

Atomic positions and initial magnetic moments

Positions:
   0 Cs    -0.103777   -0.103777   -0.000000    ( 0.0000,  0.0000,  0.0000)
   1 Pb     3.194960    3.194960    3.260779    ( 0.0000,  0.0000,  0.0000)
   2 I      0.012088    3.194989    3.104437    ( 0.0000,  0.0000,  0.0000)
   3 I      3.194989    0.012088    3.104437    ( 0.0000,  0.0000,  0.0000)
   4 Cs     0.017133    0.017133    6.390000    ( 0.0000,  0.0000,  0.0000)
   5 Pb     3.194960    3.194960    9.519221    ( 0.0000,  0.0000,  0.0000)
   6 I      3.194987    3.194987    6.390000    ( 0.0000,  0.0000,  0.0000)
   7 I      0.012088    3.194989    9.675563    ( 0.0000,  0.0000,  0.0000)
   8 I      3.194989    0.012088    9.675563    ( 0.0000,  0.0000,  0.0000)
   9 Cs    -0.103775    6.493776    0.000000    ( 0.0000,  0.0000,  0.0000)
  10 Pb     3.194957    9.585047    3.215823    ( 0.0000,  0.0000,  0.0000)
  11 I      3.194989    9.585011   -0.000000    ( 0.0000,  0.0000,  0.0000)
  12 I     -0.000197    9.585011    3.190856    ( 0.0000,  0.0000,  0.0000)
  13 I      3.194990    6.377905    3.104438    ( 0.0000,  0.0000,  0.0000)
  14 Cs     0.017132    6.372867    6.390000    ( 0.0000,  0.0000,  0.0000)
  15 Pb     3.194957    9.585047    9.564177    ( 0.0000,  0.0000,  0.0000)
  16 I      3.194990    9.585010    6.390000    ( 0.0000,  0.0000,  0.0000)
  17 I     -0.000197    9.585011    9.589144    ( 0.0000,  0.0000,  0.0000)
  18 I      3.194990    6.377905    9.675562    ( 0.0000,  0.0000,  0.0000)
  19 Cs     6.493776   -0.103775    0.000000    ( 0.0000,  0.0000,  0.0000)
  20 Pb     9.585047    3.194957    3.215823    ( 0.0000,  0.0000,  0.0000)
  21 I      9.585011    3.194989   -0.000000    ( 0.0000,  0.0000,  0.0000)
  22 I      6.377905    3.194990    3.104438    ( 0.0000,  0.0000,  0.0000)
  23 I      9.585011   -0.000197    3.190856    ( 0.0000,  0.0000,  0.0000)
  24 Cs     6.372867    0.017132    6.390000    ( 0.0000,  0.0000,  0.0000)
  25 Pb     9.585047    3.194957    9.564177    ( 0.0000,  0.0000,  0.0000)
  26 I      9.585010    3.194990    6.390000    ( 0.0000,  0.0000,  0.0000)
  27 I      6.377905    3.194990    9.675562    ( 0.0000,  0.0000,  0.0000)
  28 I      9.585011   -0.000197    9.589144    ( 0.0000,  0.0000,  0.0000)
  29 Cs     6.493774    6.493774    0.000000    ( 0.0000,  0.0000,  0.0000)
  30 Pb     9.585043    9.585043    3.214957    ( 0.0000,  0.0000,  0.0000)
  31 I      9.585011    9.585011    0.000000    ( 0.0000,  0.0000,  0.0000)
  32 I      6.390197    9.585010    3.190857    ( 0.0000,  0.0000,  0.0000)
  33 I      9.585010    6.390197    3.190857    ( 0.0000,  0.0000,  0.0000)
  34 Cs     6.372867    6.372867    6.390000    ( 0.0000,  0.0000,  0.0000)
  35 Pb     9.585043    9.585043    9.565043    ( 0.0000,  0.0000,  0.0000)
  36 I      9.585010    9.585010    6.390000    ( 0.0000,  0.0000,  0.0000)
  37 I      6.390197    9.585010    9.589143    ( 0.0000,  0.0000,  0.0000)
  38 I      9.585010    6.390197    9.589143    ( 0.0000,  0.0000,  0.0000)

Unit cell:
           periodic     x           y           z      points  spacing
  1. axis:    yes   12.780000    0.000000    0.000000    75     0.1704
  2. axis:    yes    0.000000   12.780000    0.000000    75     0.1704
  3. axis:    yes    0.000000    0.000000   12.780000    75     0.1704

  Lengths:  12.780000  12.780000  12.780000
  Angles:   90.000000  90.000000  90.000000

Effective grid spacing dv^(1/3) = 0.1704

     iter     time        total  log10-change:
                         energy   eigst   dens
iter:   1 00:24:04  -110.327126   -3.53
iter:   2 00:24:33  -110.327334   -4.79  -3.05
iter:   3 00:25:01  -110.328748c  -4.94  -3.10
iter:   4 00:25:29  -110.328164c  -6.28  -3.50
iter:   5 00:25:57  -110.327469c  -6.33  -3.54
iter:   6 00:26:26  -110.328183c  -6.18  -3.75
iter:   7 00:26:54  -110.328085c  -6.50  -3.83
iter:   8 00:27:25  -110.328045c  -7.69c -4.18c

Converged after 8 iterations.

Dipole moment: (22.414582, 22.414582, 0.000000) |e|*Ang

Energy contributions relative to reference atoms: (reference = -10684034.619125)

Kinetic:       +193.900748
Potential:     -201.370098
External:        +0.000000
XC:            -101.832107
Entropy (-ST):   -0.180627
Local:           -0.936275
SIC:             +0.000000
--------------------------
Free energy:   -110.418359
Extrapolated:  -110.328045

Showing all kpts
 Kpt  Band  Eigenvalues  Occupancy
  0   170      1.05634    2.00000
  0   171      1.17054    2.00000
  0   172      3.63305    0.92772
  0   173      4.03546    0.03047

  1   170      1.05634    2.00000
  1   171      1.17054    2.00000
  1   172      3.63305    0.92772
  1   173      4.03546    0.03047


Fermi level: 3.61856

Gap: 2.463 eV
Transition (v -> c):
  (s=0, k=0, n=171, [0.25, -0.25, 0.25]) -> (s=0, k=1, n=172, [0.25, 0.25, 0.25])
Direct/indirect transitions are different
Direct gap: 2.463 eV
Transition at: (s=0, k=0, n=171, [0.25, -0.25, 0.25])

Forces in eV/Ang:
  0 Cs   -0.03290   -0.03290    0.00000
  1 Pb    0.00014    0.00014   -0.18848
  2 I    -0.03546   -0.00001   -0.03016
  3 I    -0.00001   -0.03546   -0.03016
  4 Cs   -0.00211   -0.00211    0.00000
  5 Pb    0.00014    0.00014    0.18848
  6 I    -0.00002   -0.00002    0.00000
  7 I    -0.03546   -0.00001    0.03016
  8 I    -0.00001   -0.03546    0.03016
  9 Cs   -0.03290    0.03290    0.00000
 10 Pb    0.00014   -0.00013   -0.11852
 11 I    -0.00001    0.00001    0.00000
 12 I    -0.01199    0.00001   -0.00812
 13 I    -0.00001    0.03547   -0.03015
 14 Cs   -0.00211    0.00210    0.00000
 15 Pb    0.00014   -0.00013    0.11852
 16 I    -0.00001    0.00001    0.00000
 17 I    -0.01199    0.00001    0.00812
 18 I    -0.00001    0.03547    0.03015
 19 Cs    0.03290   -0.03290    0.00000
 20 Pb   -0.00013    0.00014   -0.11852
 21 I     0.00001   -0.00001    0.00000
 22 I     0.03547   -0.00001   -0.03015
 23 I     0.00001   -0.01199   -0.00812
 24 Cs    0.00210   -0.00211    0.00000
 25 Pb   -0.00013    0.00014    0.11852
 26 I     0.00001   -0.00001    0.00000
 27 I     0.03547   -0.00001    0.03015
 28 I     0.00001   -0.01199    0.00812
 29 Cs    0.03290    0.03290    0.00000
 30 Pb   -0.00014   -0.00014   -0.03087
 31 I     0.00001    0.00001    0.00000
 32 I     0.01199    0.00001   -0.00812
 33 I     0.00001    0.01199   -0.00812
 34 Cs    0.00211    0.00211    0.00000
 35 Pb   -0.00014   -0.00014    0.03087
 36 I     0.00001    0.00001    0.00000
 37 I     0.01199    0.00001    0.00812
 38 I     0.00001    0.01199    0.00812

System changes: positions 

Initializing position-dependent things.

Density initialized from wave functions
         .------------------------------.  
        /|                              |  
       / |                              |  
      /  |                              |  
     /   |       I                      |  
    /    |                              |  
   /   I |     Pb     I       Pb        |  
  /      |                              |  
 *       |   I              I           |  
 |       |                              |  
 |       | Pb  I   I      Pb  I   I     |  
 |       |                              |  
 |   Cs  |       I  Cs  I               |  
 |       |                              |  
 |     I | I   Pb     I   I   Pb        |  
 |       |                              |  
 Cs      .---I--Cs-------Cs-I-----------Cs 
 |      /                              /   
 |     /   Pb  I   I      Pb  I   I   /    
 |    /                              /     
 |   /               Cs I           /s     
 |  /                              /       
 | /                      I       /        
 |/                              /         
 *------------------------------*          

Atomic positions and initial magnetic moments

Positions:
   0 Cs    -0.141532   -0.141532    0.000000    ( 0.0000,  0.0000,  0.0000)
   1 Pb     3.194977    3.194977    3.272572    ( 0.0000,  0.0000,  0.0000)
   2 I     -0.000110    3.194979    3.079351    ( 0.0000,  0.0000,  0.0000)
   3 I      3.194979   -0.000110    3.079351    ( 0.0000,  0.0000,  0.0000)
   4 Cs     0.025734    0.025734    6.390000    ( 0.0000,  0.0000,  0.0000)
   5 Pb     3.194977    3.194977    9.507428    ( 0.0000,  0.0000,  0.0000)
   6 I      3.194973    3.194973    6.390000    ( 0.0000,  0.0000,  0.0000)
   7 I     -0.000110    3.194979    9.700649    ( 0.0000,  0.0000,  0.0000)
   8 I      3.194979   -0.000110    9.700649    ( 0.0000,  0.0000,  0.0000)
   9 Cs    -0.141529    6.531530    0.000000    ( 0.0000,  0.0000,  0.0000)
  10 Pb     3.194970    9.585041    3.200548    ( 0.0000,  0.0000,  0.0000)
  11 I      3.194978    9.585020   -0.000000    ( 0.0000,  0.0000,  0.0000)
  12 I      0.000849    9.585021    3.191927    ( 0.0000,  0.0000,  0.0000)
  13 I      3.194980    6.390096    3.079353    ( 0.0000,  0.0000,  0.0000)
  14 Cs     0.025733    6.364265    6.390000    ( 0.0000,  0.0000,  0.0000)
  15 Pb     3.194970    9.585041    9.579452    ( 0.0000,  0.0000,  0.0000)
  16 I      3.194980    9.585020    6.390000    ( 0.0000,  0.0000,  0.0000)
  17 I      0.000849    9.585021    9.588073    ( 0.0000,  0.0000,  0.0000)
  18 I      3.194980    6.390096    9.700647    ( 0.0000,  0.0000,  0.0000)
  19 Cs     6.531530   -0.141529    0.000000    ( 0.0000,  0.0000,  0.0000)
  20 Pb     9.585041    3.194970    3.200548    ( 0.0000,  0.0000,  0.0000)
  21 I      9.585020    3.194978   -0.000000    ( 0.0000,  0.0000,  0.0000)
  22 I      6.390096    3.194980    3.079353    ( 0.0000,  0.0000,  0.0000)
  23 I      9.585021    0.000849    3.191927    ( 0.0000,  0.0000,  0.0000)
  24 Cs     6.364265    0.025733    6.390000    ( 0.0000,  0.0000,  0.0000)
  25 Pb     9.585041    3.194970    9.579452    ( 0.0000,  0.0000,  0.0000)
  26 I      9.585020    3.194980    6.390000    ( 0.0000,  0.0000,  0.0000)
  27 I      6.390096    3.194980    9.700647    ( 0.0000,  0.0000,  0.0000)
  28 I      9.585021    0.000849    9.588073    ( 0.0000,  0.0000,  0.0000)
  29 Cs     6.531527    6.531527    0.000000    ( 0.0000,  0.0000,  0.0000)
  30 Pb     9.585030    9.585030    3.218255    ( 0.0000,  0.0000,  0.0000)
  31 I      9.585022    9.585022    0.000000    ( 0.0000,  0.0000,  0.0000)
  32 I      6.389151    9.585020    3.191929    ( 0.0000,  0.0000,  0.0000)
  33 I      9.585020    6.389151    3.191929    ( 0.0000,  0.0000,  0.0000)
  34 Cs     6.364266    6.364266    6.390000    ( 0.0000,  0.0000,  0.0000)
  35 Pb     9.585030    9.585030    9.561745    ( 0.0000,  0.0000,  0.0000)
  36 I      9.585020    9.585020    6.390000    ( 0.0000,  0.0000,  0.0000)
  37 I      6.389151    9.585020    9.588071    ( 0.0000,  0.0000,  0.0000)
  38 I      9.585020    6.389151    9.588071    ( 0.0000,  0.0000,  0.0000)

Unit cell:
           periodic     x           y           z      points  spacing
  1. axis:    yes   12.780000    0.000000    0.000000    75     0.1704
  2. axis:    yes    0.000000   12.780000    0.000000    75     0.1704
  3. axis:    yes    0.000000    0.000000   12.780000    75     0.1704

  Lengths:  12.780000  12.780000  12.780000
  Angles:   90.000000  90.000000  90.000000

Effective grid spacing dv^(1/3) = 0.1704

     iter     time        total  log10-change:
                         energy   eigst   dens
iter:   1 00:28:08  -110.340894   -3.15
iter:   2 00:28:36  -110.340506   -4.41  -2.86
iter:   3 00:29:04  -110.340149c  -4.50  -2.90
iter:   4 00:29:32  -110.339305c  -5.91  -3.31
iter:   5 00:29:59  -110.338183c  -5.98  -3.34
iter:   6 00:30:27  -110.339256c  -5.65  -3.52
iter:   7 00:30:56  -110.339255c  -6.15  -3.62
iter:   8 00:31:24  -110.339214c  -7.30  -4.00
iter:   9 00:31:52  -110.339039c  -7.01  -4.06c
iter:  10 00:32:21  -110.339045c  -7.69c -4.25c

Converged after 10 iterations.

Dipole moment: (31.774493, 31.774493, 0.000000) |e|*Ang

Energy contributions relative to reference atoms: (reference = -10684034.619125)

Kinetic:       +194.433426
Potential:     -201.817904
External:        +0.000000
XC:            -101.932843
Entropy (-ST):   -0.182966
Local:           -0.930241
SIC:             +0.000000
--------------------------
Free energy:   -110.430528
Extrapolated:  -110.339045

Showing all kpts
 Kpt  Band  Eigenvalues  Occupancy
  0   170      1.06807    2.00000
  0   171      1.17831    2.00000
  0   172      3.63995    0.92266
  0   173      4.03563    0.03223

  1   170      1.06808    2.00000
  1   171      1.17831    2.00000
  1   172      3.63995    0.92266
  1   173      4.03563    0.03223


Fermi level: 3.62445

Gap: 2.462 eV
Transition (v -> c):
  (s=0, k=0, n=171, [0.25, -0.25, 0.25]) -> (s=0, k=1, n=172, [0.25, 0.25, 0.25])
Direct/indirect transitions are different
Direct gap: 2.462 eV
Transition at: (s=0, k=0, n=171, [0.25, -0.25, 0.25])

Forces in eV/Ang:
  0 Cs   -0.01275   -0.01275    0.00000
  1 Pb    0.00006    0.00006   -0.23565
  2 I     0.03794   -0.00000   -0.02088
  3 I    -0.00000    0.03794   -0.02088
  4 Cs   -0.01015   -0.01015    0.00000
  5 Pb    0.00006    0.00006    0.23565
  6 I    -0.00000   -0.00000    0.00000
  7 I     0.03794   -0.00000    0.02088
  8 I    -0.00000    0.03794    0.02088
  9 Cs   -0.01275    0.01275    0.00000
 10 Pb    0.00008   -0.00009   -0.05271
 11 I    -0.00000   -0.00000    0.00000
 12 I    -0.03059   -0.00000   -0.00178
 13 I    -0.00000   -0.03790   -0.02087
 14 Cs   -0.01015    0.01014    0.00000
 15 Pb    0.00008   -0.00009    0.05271
 16 I    -0.00000    0.00001    0.00000
 17 I    -0.03059   -0.00000    0.00178
 18 I    -0.00000   -0.03790    0.02087
 19 Cs    0.01275   -0.01275    0.00000
 20 Pb   -0.00009    0.00008   -0.05271
 21 I    -0.00000   -0.00000    0.00000
 22 I    -0.03790   -0.00000   -0.02087
 23 I    -0.00000   -0.03059   -0.00178
 24 Cs    0.01014   -0.01015    0.00000
 25 Pb   -0.00009    0.00008    0.05271
 26 I     0.00001   -0.00000    0.00000
 27 I    -0.03790   -0.00000    0.02087
 28 I    -0.00000   -0.03059    0.00178
 29 Cs    0.01275    0.01275    0.00000
 30 Pb   -0.00007   -0.00007    0.00490
 31 I    -0.00000   -0.00000    0.00000
 32 I     0.03059    0.00000   -0.00178
 33 I     0.00000    0.03059   -0.00178
 34 Cs    0.01014    0.01014    0.00000
 35 Pb   -0.00007   -0.00007   -0.00490
 36 I     0.00000    0.00000    0.00000
 37 I     0.03059    0.00000    0.00178
 38 I     0.00000    0.03059    0.00178

System changes: positions 

Initializing position-dependent things.

Density initialized from wave functions
         .------------------------------.  
        /|                              |  
       / |                              |  
      /  |                              |  
     /   |       I                      |  
    /    |                              |  
   /   I |     Pb     I       Pb        |  
  /      |                              |  
 *       |   I              I           |  
 |       |                              |  
 |       | Pb  I   I      Pb  I   I     |  
 |       |                              |  
 |   Cs  |       I  Cs  I               |  
 |       |                              |  
 |     I | I   Pb     I   I   Pb        |  
 |       |                              |  
 Cs      .---I--Cs-------Cs-I-----------Cs 
 |      /                              /   
 |     /   Pb  I   I      Pb  I   I   /    
 |    /                              /     
 |   /               Cs I           /s     
 |  /                              /       
 | /                      I       /        
 |/                              /         
 *------------------------------*          

Atomic positions and initial magnetic moments

Positions:
   0 Cs    -0.141521   -0.141521    0.000000    ( 0.0000,  0.0000,  0.0000)
   1 Pb     3.194980    3.194980    3.269308    ( 0.0000,  0.0000,  0.0000)
   2 I     -0.001255    3.194978    3.080651    ( 0.0000,  0.0000,  0.0000)
   3 I      3.194978   -0.001255    3.080651    ( 0.0000,  0.0000,  0.0000)
   4 Cs     0.026015    0.026015    6.390000    ( 0.0000,  0.0000,  0.0000)
   5 Pb     3.194980    3.194980    9.510692    ( 0.0000,  0.0000,  0.0000)
   6 I      3.194972    3.194972    6.390000    ( 0.0000,  0.0000,  0.0000)
   7 I     -0.001255    3.194978    9.699349    ( 0.0000,  0.0000,  0.0000)
   8 I      3.194978   -0.001255    9.699349    ( 0.0000,  0.0000,  0.0000)
   9 Cs    -0.141518    6.531519    0.000000    ( 0.0000,  0.0000,  0.0000)
  10 Pb     3.194973    9.585038    3.197983    ( 0.0000,  0.0000,  0.0000)
  11 I      3.194977    9.585021   -0.000000    ( 0.0000,  0.0000,  0.0000)
  12 I      0.000648    9.585022    3.192274    ( 0.0000,  0.0000,  0.0000)
  13 I      3.194979    6.391242    3.080653    ( 0.0000,  0.0000,  0.0000)
  14 Cs     0.026015    6.363984    6.390000    ( 0.0000,  0.0000,  0.0000)
  15 Pb     3.194973    9.585038    9.582017    ( 0.0000,  0.0000,  0.0000)
  16 I      3.194979    9.585021    6.390000    ( 0.0000,  0.0000,  0.0000)
  17 I      0.000648    9.585022    9.587726    ( 0.0000,  0.0000,  0.0000)
  18 I      3.194979    6.391242    9.699347    ( 0.0000,  0.0000,  0.0000)
  19 Cs     6.531519   -0.141518    0.000000    ( 0.0000,  0.0000,  0.0000)
  20 Pb     9.585038    3.194973    3.197983    ( 0.0000,  0.0000,  0.0000)
  21 I      9.585021    3.194977   -0.000000    ( 0.0000,  0.0000,  0.0000)
  22 I      6.391242    3.194979    3.080653    ( 0.0000,  0.0000,  0.0000)
  23 I      9.585022    0.000648    3.192274    ( 0.0000,  0.0000,  0.0000)
  24 Cs     6.363984    0.026015    6.390000    ( 0.0000,  0.0000,  0.0000)
  25 Pb     9.585038    3.194973    9.582017    ( 0.0000,  0.0000,  0.0000)
  26 I      9.585021    3.194979    6.390000    ( 0.0000,  0.0000,  0.0000)
  27 I      6.391242    3.194979    9.699347    ( 0.0000,  0.0000,  0.0000)
  28 I      9.585022    0.000648    9.587726    ( 0.0000,  0.0000,  0.0000)
  29 Cs     6.531515    6.531515    0.000000    ( 0.0000,  0.0000,  0.0000)
  30 Pb     9.585027    9.585027    3.218008    ( 0.0000,  0.0000,  0.0000)
  31 I      9.585023    9.585023    0.000000    ( 0.0000,  0.0000,  0.0000)
  32 I      6.389353    9.585021    3.192276    ( 0.0000,  0.0000,  0.0000)
  33 I      9.585021    6.389353    3.192276    ( 0.0000,  0.0000,  0.0000)
  34 Cs     6.363985    6.363985    6.390000    ( 0.0000,  0.0000,  0.0000)
  35 Pb     9.585027    9.585027    9.561992    ( 0.0000,  0.0000,  0.0000)
  36 I      9.585021    9.585021    6.390000    ( 0.0000,  0.0000,  0.0000)
  37 I      6.389353    9.585021    9.587724    ( 0.0000,  0.0000,  0.0000)
  38 I      9.585021    6.389353    9.587724    ( 0.0000,  0.0000,  0.0000)

Unit cell:
           periodic     x           y           z      points  spacing
  1. axis:    yes   12.780000    0.000000    0.000000    75     0.1704
  2. axis:    yes    0.000000   12.780000    0.000000    75     0.1704
  3. axis:    yes    0.000000    0.000000   12.780000    75     0.1704

  Lengths:  12.780000  12.780000  12.780000
  Angles:   90.000000  90.000000  90.000000

Effective grid spacing dv^(1/3) = 0.1704

     iter     time        total  log10-change:
                         energy   eigst   dens
iter:   1 00:33:05  -110.341740   -4.92
iter:   2 00:33:34  -110.341488   -6.17  -3.83
iter:   3 00:34:02  -110.340687c  -6.44  -3.90
iter:   4 00:34:31  -110.340835c  -7.89c -4.18c

Converged after 4 iterations.

Dipole moment: (31.991978, 31.991978, 0.000000) |e|*Ang

Energy contributions relative to reference atoms: (reference = -10684034.619125)

Kinetic:       +194.301383
Potential:     -201.709417
External:        +0.000000
XC:            -101.922826
Entropy (-ST):   -0.182245
Local:           -0.918852
SIC:             +0.000000
--------------------------
Free energy:   -110.431958
Extrapolated:  -110.340835

Showing all kpts
 Kpt  Band  Eigenvalues  Occupancy
  0   170      1.06804    2.00000
  0   171      1.17662    2.00000
  0   172      3.63747    0.92419
  0   173      4.03556    0.03157

  1   170      1.06804    2.00000
  1   171      1.17662    2.00000
  1   172      3.63747    0.92419
  1   173      4.03556    0.03157


Fermi level: 3.62228

Gap: 2.461 eV
Transition (v -> c):
  (s=0, k=0, n=171, [0.25, -0.25, 0.25]) -> (s=0, k=1, n=172, [0.25, 0.25, 0.25])
Direct/indirect transitions are different
Direct gap: 2.461 eV
Transition at: (s=0, k=0, n=171, [0.25, -0.25, 0.25])

Forces in eV/Ang:
  0 Cs   -0.01659   -0.01659    0.00000
  1 Pb    0.00005    0.00005   -0.20650
  2 I     0.03107   -0.00001   -0.01580
  3 I    -0.00001    0.03107   -0.01580
  4 Cs   -0.00227   -0.00227    0.00000
  5 Pb    0.00005    0.00005    0.20650
  6 I    -0.00001   -0.00001    0.00000
  7 I     0.03107   -0.00001    0.01580
  8 I    -0.00001    0.03107    0.01580
  9 Cs   -0.01659    0.01659    0.00000
 10 Pb    0.00007   -0.00009   -0.04047
 11 I    -0.00001    0.00000    0.00000
 12 I    -0.02812    0.00001   -0.00150
 13 I    -0.00001   -0.03103   -0.01579
 14 Cs   -0.00227    0.00227    0.00000
 15 Pb    0.00007   -0.00009    0.04047
 16 I    -0.00001    0.00001    0.00000
 17 I    -0.02812    0.00001    0.00150
 18 I    -0.00001   -0.03103    0.01579
 19 Cs    0.01659   -0.01659    0.00000
 20 Pb   -0.00009    0.00007   -0.04047
 21 I     0.00000   -0.00001    0.00000
 22 I    -0.03103   -0.00001   -0.01579
 23 I     0.00001   -0.02812   -0.00150
 24 Cs    0.00227   -0.00227    0.00000
 25 Pb   -0.00009    0.00007    0.04047
 26 I     0.00001   -0.00001    0.00000
 27 I    -0.03103   -0.00001    0.01579
 28 I     0.00001   -0.02812    0.00150
 29 Cs    0.01659    0.01659    0.00000
 30 Pb   -0.00006   -0.00006   -0.01438
 31 I     0.00001    0.00001    0.00000
 32 I     0.02812    0.00001   -0.00150
 33 I     0.00001    0.02812   -0.00150
 34 Cs    0.00227    0.00227    0.00000
 35 Pb   -0.00006   -0.00006    0.01438
 36 I     0.00001    0.00001    0.00000
 37 I     0.02812    0.00001    0.00150
 38 I     0.00001    0.02812    0.00150

System changes: positions 

Initializing position-dependent things.

Density initialized from wave functions
         .------------------------------.  
        /|                              |  
       / |                              |  
      /  |                              |  
     /   |       I              I       |  
    /    |                              |  
   /     |     Pb      I      Pb      I |  
  /      |                              |  
 *       |   I              I           |  
 |       |                              |  
 |       | Pb  I   I      Pb  I   I     |  
 |       |                              |  
 |   Cs  |       I  Cs          I       |  
 |       |                              |  
 |       | I   Pb      I  I   Pb      I |  
 |       |                              |  
 Cs      .---I--Cs-------Cs-I----------Cs  
 |      /                              /   
 |     /   Pb  I   I      Pb  I   I   /    
 |    /                              /     
 |   /               Cs             /s     
 |  /                              /       
 | /                      I       /        
 |/                              /         
 *------------------------------*          

Atomic positions and initial magnetic moments

Positions:
   0 Cs    -0.169075   -0.169075    0.000000    ( 0.0000,  0.0000,  0.0000)
   1 Pb     3.195030    3.195030    3.235020    ( 0.0000,  0.0000,  0.0000)
   2 I     -0.021562    3.194960    3.078158    ( 0.0000,  0.0000,  0.0000)
   3 I      3.194960   -0.021562    3.078158    ( 0.0000,  0.0000,  0.0000)
   4 Cs     0.036065    0.036065    6.390000    ( 0.0000,  0.0000,  0.0000)
   5 Pb     3.195030    3.195030    9.544980    ( 0.0000,  0.0000,  0.0000)
   6 I      3.194948    3.194948    6.390000    ( 0.0000,  0.0000,  0.0000)
   7 I     -0.021562    3.194960    9.701842    ( 0.0000,  0.0000,  0.0000)
   8 I      3.194960   -0.021562    9.701842    ( 0.0000,  0.0000,  0.0000)
   9 Cs    -0.169068    6.559071    0.000000    ( 0.0000,  0.0000,  0.0000)
  10 Pb     3.195019    9.584998    3.158321    ( 0.0000,  0.0000,  0.0000)
  11 I      3.194958    9.585038   -0.000000    ( 0.0000,  0.0000,  0.0000)
  12 I     -0.001945    9.585040    3.197203    ( 0.0000,  0.0000,  0.0000)
  13 I      3.194961    6.411547    3.078164    ( 0.0000,  0.0000,  0.0000)
  14 Cs     0.036064    6.353934    6.390000    ( 0.0000,  0.0000,  0.0000)
  15 Pb     3.195019    9.584998    9.621679    ( 0.0000,  0.0000,  0.0000)
  16 I      3.194962    9.585040    6.390000    ( 0.0000,  0.0000,  0.0000)
  17 I     -0.001945    9.585040    9.582797    ( 0.0000,  0.0000,  0.0000)
  18 I      3.194961    6.411547    9.701836    ( 0.0000,  0.0000,  0.0000)
  19 Cs     6.559071   -0.169068    0.000000    ( 0.0000,  0.0000,  0.0000)
  20 Pb     9.584998    3.195019    3.158321    ( 0.0000,  0.0000,  0.0000)
  21 I      9.585038    3.194958   -0.000000    ( 0.0000,  0.0000,  0.0000)
  22 I      6.411547    3.194961    3.078164    ( 0.0000,  0.0000,  0.0000)
  23 I      9.585040   -0.001945    3.197203    ( 0.0000,  0.0000,  0.0000)
  24 Cs     6.353934    0.036064    6.390000    ( 0.0000,  0.0000,  0.0000)
  25 Pb     9.584998    3.195019    9.621679    ( 0.0000,  0.0000,  0.0000)
  26 I      9.585040    3.194962    6.390000    ( 0.0000,  0.0000,  0.0000)
  27 I      6.411547    3.194961    9.701836    ( 0.0000,  0.0000,  0.0000)
  28 I      9.585040   -0.001945    9.582797    ( 0.0000,  0.0000,  0.0000)
  29 Cs     6.559064    6.559064    0.000000    ( 0.0000,  0.0000,  0.0000)
  30 Pb     9.584982    9.584982    3.215827    ( 0.0000,  0.0000,  0.0000)
  31 I      9.585041    9.585041    0.000000    ( 0.0000,  0.0000,  0.0000)
  32 I      6.391945    9.585038    3.197206    ( 0.0000,  0.0000,  0.0000)
  33 I      9.585038    6.391945    3.197206    ( 0.0000,  0.0000,  0.0000)
  34 Cs     6.353936    6.353936    6.390000    ( 0.0000,  0.0000,  0.0000)
  35 Pb     9.584982    9.584982    9.564173    ( 0.0000,  0.0000,  0.0000)
  36 I      9.585039    9.585039    6.390000    ( 0.0000,  0.0000,  0.0000)
  37 I      6.391945    9.585038    9.582794    ( 0.0000,  0.0000,  0.0000)
  38 I      9.585038    6.391945    9.582794    ( 0.0000,  0.0000,  0.0000)

Unit cell:
           periodic     x           y           z      points  spacing
  1. axis:    yes   12.780000    0.000000    0.000000    75     0.1704
  2. axis:    yes    0.000000   12.780000    0.000000    75     0.1704
  3. axis:    yes    0.000000    0.000000   12.780000    75     0.1704

  Lengths:  12.780000  12.780000  12.780000
  Angles:   90.000000  90.000000  90.000000

Effective grid spacing dv^(1/3) = 0.1704

     iter     time        total  log10-change:
                         energy   eigst   dens
iter:   1 00:35:15  -110.354895   -2.64
iter:   2 00:35:43  -110.350185   -3.88  -2.72
iter:   3 00:36:12  -110.334971c  -4.07  -2.77
iter:   4 00:36:40  -110.336537c  -5.57  -3.05
iter:   5 00:37:11  -110.338211c  -5.62  -3.09
iter:   6 00:37:41  -110.336754c  -5.21  -3.24
iter:   7 00:38:15  -110.336546c  -5.60  -3.40
iter:   8 00:38:46  -110.336501c  -6.92  -3.82
iter:   9 00:39:16  -110.336621c  -6.33  -3.85
iter:  10 00:39:51  -110.336679c  -6.98  -4.03c
iter:  11 00:40:21  -110.336710c  -7.72c -4.26c

Converged after 11 iterations.

Dipole moment: (40.187653, 40.187653, 0.000000) |e|*Ang

Energy contributions relative to reference atoms: (reference = -10684034.619125)

Kinetic:       +194.002564
Potential:     -201.460724
External:        +0.000000
XC:            -101.865036
Entropy (-ST):   -0.174989
Local:           -0.926020
SIC:             +0.000000
--------------------------
Free energy:   -110.424205
Extrapolated:  -110.336710

Showing all kpts
 Kpt  Band  Eigenvalues  Occupancy
  0   170      1.07501    2.00000
  0   171      1.16382    2.00000
  0   172      3.60774    0.93925
  0   173      4.03208    0.02511

  1   170      1.07501    2.00000
  1   171      1.16382    2.00000
  1   172      3.60774    0.93925
  1   173      4.03208    0.02511


Fermi level: 3.59557

Gap: 2.444 eV
Transition (v -> c):
  (s=0, k=0, n=171, [0.25, -0.25, 0.25]) -> (s=0, k=1, n=172, [0.25, 0.25, 0.25])
Direct/indirect transitions are different
Direct gap: 2.444 eV
Transition at: (s=0, k=0, n=171, [0.25, -0.25, 0.25])

Forces in eV/Ang:
  0 Cs   -0.01078   -0.01078    0.00000
  1 Pb   -0.00018   -0.00018   -0.13693
  2 I     0.14473    0.00004   -0.02757
  3 I     0.00004    0.14473   -0.02757
  4 Cs   -0.00878   -0.00878    0.00000
  5 Pb   -0.00018   -0.00018    0.13693
  6 I     0.00007    0.00007    0.00000
  7 I     0.14473    0.00004    0.02757
  8 I     0.00004    0.14473    0.02757
  9 Cs   -0.01078    0.01079    0.00000
 10 Pb   -0.00016    0.00011    0.14563
 11 I     0.00004   -0.00004    0.00000
 12 I    -0.02126   -0.00004   -0.02235
 13 I     0.00004   -0.14469   -0.02757
 14 Cs   -0.00878    0.00878    0.00000
 15 Pb   -0.00016    0.00011   -0.14563
 16 I     0.00004   -0.00003    0.00000
 17 I    -0.02126   -0.00004    0.02235
 18 I     0.00004   -0.14469    0.02757
 19 Cs    0.01079   -0.01078    0.00000
 20 Pb    0.00011   -0.00016    0.14563
 21 I    -0.00004    0.00004    0.00000
 22 I    -0.14469    0.00004   -0.02757
 23 I    -0.00004   -0.02126   -0.02235
 24 Cs    0.00878   -0.00878    0.00000
 25 Pb    0.00011   -0.00016   -0.14563
 26 I    -0.00003    0.00004    0.00000
 27 I    -0.14469    0.00004    0.02757
 28 I    -0.00004   -0.02126    0.02235
 29 Cs    0.01079    0.01079    0.00000
 30 Pb    0.00016    0.00016    0.02684
 31 I    -0.00005   -0.00005    0.00000
 32 I     0.02126   -0.00004   -0.02235
 33 I    -0.00004    0.02126   -0.02235
 34 Cs    0.00878    0.00878    0.00000
 35 Pb    0.00016    0.00016   -0.02684
 36 I    -0.00004   -0.00004    0.00000
 37 I     0.02126   -0.00004    0.02235
 38 I    -0.00004    0.02126    0.02235

System changes: positions 

Initializing position-dependent things.

Density initialized from wave functions
         .------------------------------.  
        /|                              |  
       / |                              |  
      /  |                              |  
     /   |       I              I       |  
    /    |                              |  
   /     |     Pb      I      Pb      I |  
  /      |                              |  
 *       |   I              I           |  
 |       |                              |  
 |       | Pb  I   I      Pb  I   I     |  
 |       |                              |  
 |   Cs  |       I  Cs          I       |  
 |       |                              |  
 |       | I   Pb      I  I   Pb      I |  
 |       |                              |  
 Cs      .---I--Cs-------Cs-I-----------Cs 
 |      /                              /   
 |     /   Pb  I   I      Pb  I   I   /    
 |    /                              /     
 |   /               Cs             /s     
 |  /                              /       
 | /                      I       /        
 |/                              /         
 *------------------------------*          

Atomic positions and initial magnetic moments

Positions:
   0 Cs    -0.152682   -0.152682    0.000000    ( 0.0000,  0.0000,  0.0000)
   1 Pb     3.194999    3.194999    3.251700    ( 0.0000,  0.0000,  0.0000)
   2 I     -0.007216    3.194970    3.080774    ( 0.0000,  0.0000,  0.0000)
   3 I      3.194970   -0.007216    3.080774    ( 0.0000,  0.0000,  0.0000)
   4 Cs     0.030341    0.030341    6.390000    ( 0.0000,  0.0000,  0.0000)
   5 Pb     3.194999    3.194999    9.528300    ( 0.0000,  0.0000,  0.0000)
   6 I      3.194962    3.194962    6.390000    ( 0.0000,  0.0000,  0.0000)
   7 I     -0.007216    3.194970    9.699226    ( 0.0000,  0.0000,  0.0000)
   8 I      3.194970   -0.007216    9.699226    ( 0.0000,  0.0000,  0.0000)
   9 Cs    -0.152677    6.542679    0.000000    ( 0.0000,  0.0000,  0.0000)
  10 Pb     3.194991    9.585021    3.183480    ( 0.0000,  0.0000,  0.0000)
  11 I      3.194969    9.585028   -0.000000    ( 0.0000,  0.0000,  0.0000)
  12 I     -0.001102    9.585029    3.194443    ( 0.0000,  0.0000,  0.0000)
  13 I      3.194972    6.397204    3.080778    ( 0.0000,  0.0000,  0.0000)
  14 Cs     0.030340    6.359658    6.390000    ( 0.0000,  0.0000,  0.0000)
  15 Pb     3.194991    9.585021    9.596520    ( 0.0000,  0.0000,  0.0000)
  16 I      3.194972    9.585029    6.390000    ( 0.0000,  0.0000,  0.0000)
  17 I     -0.001102    9.585029    9.585557    ( 0.0000,  0.0000,  0.0000)
  18 I      3.194972    6.397204    9.699222    ( 0.0000,  0.0000,  0.0000)
  19 Cs     6.542679   -0.152677    0.000000    ( 0.0000,  0.0000,  0.0000)
  20 Pb     9.585021    3.194991    3.183480    ( 0.0000,  0.0000,  0.0000)
  21 I      9.585028    3.194969   -0.000000    ( 0.0000,  0.0000,  0.0000)
  22 I      6.397204    3.194972    3.080778    ( 0.0000,  0.0000,  0.0000)
  23 I      9.585029   -0.001102    3.194443    ( 0.0000,  0.0000,  0.0000)
  24 Cs     6.359658    0.030340    6.390000    ( 0.0000,  0.0000,  0.0000)
  25 Pb     9.585021    3.194991    9.596520    ( 0.0000,  0.0000,  0.0000)
  26 I      9.585029    3.194972    6.390000    ( 0.0000,  0.0000,  0.0000)
  27 I      6.397204    3.194972    9.699222    ( 0.0000,  0.0000,  0.0000)
  28 I      9.585029   -0.001102    9.585557    ( 0.0000,  0.0000,  0.0000)
  29 Cs     6.542674    6.542674    0.000000    ( 0.0000,  0.0000,  0.0000)
  30 Pb     9.585009    9.585009    3.217265    ( 0.0000,  0.0000,  0.0000)
  31 I      9.585030    9.585030    0.000000    ( 0.0000,  0.0000,  0.0000)
  32 I      6.391102    9.585028    3.194446    ( 0.0000,  0.0000,  0.0000)
  33 I      9.585028    6.391102    3.194446    ( 0.0000,  0.0000,  0.0000)
  34 Cs     6.359659    6.359659    6.390000    ( 0.0000,  0.0000,  0.0000)
  35 Pb     9.585009    9.585009    9.562735    ( 0.0000,  0.0000,  0.0000)
  36 I      9.585029    9.585029    6.390000    ( 0.0000,  0.0000,  0.0000)
[...]
 35 Pb   -0.00001   -0.00001    0.00487
 36 I    -0.00002   -0.00002    0.00000
 37 I     0.00310   -0.00002    0.00611
 38 I    -0.00002    0.00310    0.00611

System changes: positions 

Initializing position-dependent things.

Density initialized from wave functions
         .------------------------------.  
        /|                              |  
       / |                              |  
      /  |                              |  
     /   |                      I       |  
    /    |                              |  
   /     |     Pb      I      Pb      I |  
  /      |                              |  
 *       |   I              I           |  
 |       |                              |  
 | I     | Pb  I  I       Pb  I         |  
 |       |                              |  
 |   Cs  I          Cs          I       |  
 |       |                              |  
 |       | I   Pb      I  I   Pb      I |  
 |       |                              |  
 Cs      .---I--Cs-------Cs-I----------Cs  
 |      /                              /   
 | I   /   Pb  I  I       Pb  I       /    
 |    /                              /     
 |   /   I           Cs             /s     
 |  /                              /       
 | /                      I       /        
 |/                              /         
 *------------------------------*          

Atomic positions and initial magnetic moments

Positions:
   0 Cs    -0.211967   -0.211967    0.000000    ( 0.0000,  0.0000,  0.0000)
   1 Pb     3.194982    3.194982    3.195434    ( 0.0000,  0.0000,  0.0000)
   2 I      0.003286    3.194959    3.059314    ( 0.0000,  0.0000,  0.0000)
   3 I      3.194959    0.003286    3.059314    ( 0.0000,  0.0000,  0.0000)
   4 Cs     0.052181    0.052181    6.390000    ( 0.0000,  0.0000,  0.0000)
   5 Pb     3.194982    3.194982    9.584566    ( 0.0000,  0.0000,  0.0000)
   6 I      3.194956    3.194956    6.390000    ( 0.0000,  0.0000,  0.0000)
   7 I      0.003286    3.194959    9.720686    ( 0.0000,  0.0000,  0.0000)
   8 I      3.194959    0.003286    9.720686    ( 0.0000,  0.0000,  0.0000)
   9 Cs    -0.211960    6.601969    0.000000    ( 0.0000,  0.0000,  0.0000)
  10 Pb     3.194982    9.585020    3.184994    ( 0.0000,  0.0000,  0.0000)
  11 I      3.194956    9.585035   -0.000000    ( 0.0000,  0.0000,  0.0000)
  12 I     -0.004745    9.585039    3.194987    ( 0.0000,  0.0000,  0.0000)
  13 I      3.194961    6.386723    3.059332    ( 0.0000,  0.0000,  0.0000)
  14 Cs     0.052180    6.337817    6.390000    ( 0.0000,  0.0000,  0.0000)
  15 Pb     3.194982    9.585020    9.595006    ( 0.0000,  0.0000,  0.0000)
  16 I      3.194961    9.585046    6.390000    ( 0.0000,  0.0000,  0.0000)
  17 I     -0.004745    9.585039    9.585013    ( 0.0000,  0.0000,  0.0000)
  18 I      3.194961    6.386723    9.720668    ( 0.0000,  0.0000,  0.0000)
  19 Cs     6.601969   -0.211960    0.000000    ( 0.0000,  0.0000,  0.0000)
  20 Pb     9.585020    3.194982    3.184994    ( 0.0000,  0.0000,  0.0000)
  21 I      9.585035    3.194956   -0.000000    ( 0.0000,  0.0000,  0.0000)
  22 I      6.386723    3.194961    3.059332    ( 0.0000,  0.0000,  0.0000)
  23 I      9.585039   -0.004745    3.194987    ( 0.0000,  0.0000,  0.0000)
  24 Cs     6.337817    0.052180    6.390000    ( 0.0000,  0.0000,  0.0000)
  25 Pb     9.585020    3.194982    9.595006    ( 0.0000,  0.0000,  0.0000)
  26 I      9.585046    3.194961    6.390000    ( 0.0000,  0.0000,  0.0000)
  27 I      6.386723    3.194961    9.720668    ( 0.0000,  0.0000,  0.0000)
  28 I      9.585039   -0.004745    9.585013    ( 0.0000,  0.0000,  0.0000)
  29 Cs     6.601962    6.601962   -0.000000    ( 0.0000,  0.0000,  0.0000)
  30 Pb     9.585018    9.585018    3.231020    ( 0.0000,  0.0000,  0.0000)
  31 I      9.585035    9.585035    0.000000    ( 0.0000,  0.0000,  0.0000)
  32 I      6.394745    9.585038    3.194990    ( 0.0000,  0.0000,  0.0000)
  33 I      9.585038    6.394745    3.194990    ( 0.0000,  0.0000,  0.0000)
  34 Cs     6.337818    6.337818    6.390000    ( 0.0000,  0.0000,  0.0000)
  35 Pb     9.585018    9.585018    9.548980    ( 0.0000,  0.0000,  0.0000)
  36 I      9.585041    9.585041    6.390000    ( 0.0000,  0.0000,  0.0000)
  37 I      6.394745    9.585038    9.585010    ( 0.0000,  0.0000,  0.0000)
  38 I      9.585038    6.394745    9.585010    ( 0.0000,  0.0000,  0.0000)

Unit cell:
           periodic     x           y           z      points  spacing
  1. axis:    yes   12.780000    0.000000    0.000000    75     0.1704
  2. axis:    yes    0.000000   12.780000    0.000000    75     0.1704
  3. axis:    yes    0.000000    0.000000   12.780000    75     0.1704

  Lengths:  12.780000  12.780000  12.780000
  Angles:   90.000000  90.000000  90.000000

Effective grid spacing dv^(1/3) = 0.1704

     iter     time        total  log10-change:
                         energy   eigst   dens
iter:   1 01:40:43  -110.366885   -5.05
iter:   2 01:41:13  -110.366496   -6.37  -3.64
iter:   3 01:41:41  -110.365230c  -6.22  -3.70
iter:   4 01:42:11  -110.365544c  -7.61c -4.08c

Converged after 4 iterations.

Dipole moment: (38.136031, 38.136031, 0.000000) |e|*Ang

Energy contributions relative to reference atoms: (reference = -10684034.619125)

Kinetic:       +192.897851
Potential:     -200.528906
External:        +0.000000
XC:            -101.715034
Entropy (-ST):   -0.181009
Local:           -0.928951
SIC:             +0.000000
--------------------------
Free energy:   -110.456049
Extrapolated:  -110.365544

Showing all kpts
 Kpt  Band  Eigenvalues  Occupancy
  0   170      1.05751    2.00000
  0   171      1.16187    2.00000
  0   172      3.61840    0.92657
  0   173      4.02327    0.02967

  1   170      1.05751    2.00000
  1   171      1.16187    2.00000
  1   172      3.61840    0.92657
  1   173      4.02327    0.02967


Fermi level: 3.60369

Gap: 2.457 eV
Transition (v -> c):
  (s=0, k=0, n=171, [0.25, -0.25, 0.25]) -> (s=0, k=1, n=172, [0.25, 0.25, 0.25])
Direct/indirect transitions are different
Direct gap: 2.457 eV
Transition at: (s=0, k=0, n=171, [0.25, -0.25, 0.25])

Forces in eV/Ang:
  0 Cs   -0.00067   -0.00067    0.00000
  1 Pb    0.00001    0.00001   -0.00018
  2 I     0.00325    0.00002    0.00264
  3 I     0.00002    0.00325    0.00264
  4 Cs    0.00752    0.00752    0.00000
  5 Pb    0.00001    0.00001    0.00018
  6 I     0.00003    0.00003    0.00000
  7 I     0.00325    0.00002   -0.00264
  8 I     0.00002    0.00325   -0.00264
  9 Cs   -0.00067    0.00068    0.00000
 10 Pb    0.00001   -0.00001    0.00334
 11 I     0.00002   -0.00002    0.00000
 12 I    -0.00414   -0.00002   -0.01936
 13 I     0.00002   -0.00326    0.00265
 14 Cs    0.00752   -0.00752    0.00000
 15 Pb    0.00001   -0.00001   -0.00334
 16 I     0.00002   -0.00001    0.00000
 17 I    -0.00414   -0.00002    0.01936
 18 I     0.00002   -0.00326   -0.00265
 19 Cs    0.00068   -0.00067    0.00000
 20 Pb   -0.00001    0.00001    0.00334
 21 I    -0.00002    0.00002    0.00000
 22 I    -0.00326    0.00002    0.00265
 23 I    -0.00002   -0.00414   -0.01936
 24 Cs   -0.00752    0.00752    0.00000
 25 Pb   -0.00001    0.00001   -0.00334
 26 I    -0.00001    0.00002    0.00000
 27 I    -0.00326    0.00002   -0.00265
 28 I    -0.00002   -0.00414    0.01936
 29 Cs    0.00068    0.00068    0.00000
 30 Pb   -0.00001   -0.00001   -0.02630
 31 I    -0.00003   -0.00003    0.00000
 32 I     0.00414   -0.00002   -0.01936
 33 I    -0.00002    0.00414   -0.01936
 34 Cs   -0.00752   -0.00752    0.00000
 35 Pb   -0.00001   -0.00001    0.02630
 36 I    -0.00002   -0.00002    0.00000
 37 I     0.00414   -0.00002    0.01936
 38 I    -0.00002    0.00414    0.01936

System changes: positions 

Initializing position-dependent things.

Density initialized from wave functions
         .------------------------------.  
        /|                              |  
       / |                              |  
      /  |                              |  
     /   |                      I       |  
    /    |                              |  
   /     |     Pb      I      Pb      I |  
  /      |                              |  
 *       |   I              I           |  
 |       |                              |  
 | I     | Pb  I  I       Pb  I         |  
 |       |                              |  
 |   Cs  I          Cs          I       |  
 |       |                              |  
 |       | I   Pb      I  I   Pb      I |  
 |       |                              |  
 Cs      .---I--Cs-------Cs-I----------Cs  
 |      /                              /   
 | I   /   Pb  I  I       Pb  I       /    
 |    /                              /     
 |   /   I           Cs             /s     
 |  /                              /       
 | /                      I       /        
 |/                              /         
 *------------------------------*          

Atomic positions and initial magnetic moments

Positions:
   0 Cs    -0.210009   -0.210009    0.000000    ( 0.0000,  0.0000,  0.0000)
   1 Pb     3.194980    3.194980    3.193352    ( 0.0000,  0.0000,  0.0000)
   2 I      0.003522    3.194960    3.060778    ( 0.0000,  0.0000,  0.0000)
   3 I      3.194960    0.003522    3.060778    ( 0.0000,  0.0000,  0.0000)
   4 Cs     0.052300    0.052300    6.390000    ( 0.0000,  0.0000,  0.0000)
   5 Pb     3.194980    3.194980    9.586648    ( 0.0000,  0.0000,  0.0000)
   6 I      3.194958    3.194958    6.390000    ( 0.0000,  0.0000,  0.0000)
   7 I      0.003522    3.194960    9.719222    ( 0.0000,  0.0000,  0.0000)
   8 I      3.194960    0.003522    9.719222    ( 0.0000,  0.0000,  0.0000)
   9 Cs    -0.210002    6.600012    0.000000    ( 0.0000,  0.0000,  0.0000)
  10 Pb     3.194980    9.585021    3.185735    ( 0.0000,  0.0000,  0.0000)
  11 I      3.194957    9.585033   -0.000000    ( 0.0000,  0.0000,  0.0000)
  12 I     -0.004603    9.585038    3.194314    ( 0.0000,  0.0000,  0.0000)
  13 I      3.194962    6.386488    3.060797    ( 0.0000,  0.0000,  0.0000)
  14 Cs     0.052300    6.337698    6.390000    ( 0.0000,  0.0000,  0.0000)
  15 Pb     3.194980    9.585021    9.594265    ( 0.0000,  0.0000,  0.0000)
  16 I      3.194962    9.585045    6.390000    ( 0.0000,  0.0000,  0.0000)
  17 I     -0.004603    9.585038    9.585686    ( 0.0000,  0.0000,  0.0000)
  18 I      3.194962    6.386488    9.719203    ( 0.0000,  0.0000,  0.0000)
  19 Cs     6.600012   -0.210002    0.000000    ( 0.0000,  0.0000,  0.0000)
  20 Pb     9.585021    3.194980    3.185735    ( 0.0000,  0.0000,  0.0000)
  21 I      9.585033    3.194957   -0.000000    ( 0.0000,  0.0000,  0.0000)
  22 I      6.386488    3.194962    3.060797    ( 0.0000,  0.0000,  0.0000)
  23 I      9.585038   -0.004603    3.194314    ( 0.0000,  0.0000,  0.0000)
  24 Cs     6.337698    0.052300    6.390000    ( 0.0000,  0.0000,  0.0000)
  25 Pb     9.585021    3.194980    9.594265    ( 0.0000,  0.0000,  0.0000)
  26 I      9.585045    3.194962    6.390000    ( 0.0000,  0.0000,  0.0000)
  27 I      6.386488    3.194962    9.719203    ( 0.0000,  0.0000,  0.0000)
  28 I      9.585038   -0.004603    9.585686    ( 0.0000,  0.0000,  0.0000)
  29 Cs     6.600005    6.600005   -0.000000    ( 0.0000,  0.0000,  0.0000)
  30 Pb     9.585019    9.585019    3.230562    ( 0.0000,  0.0000,  0.0000)
  31 I      9.585033    9.585033    0.000000    ( 0.0000,  0.0000,  0.0000)
  32 I      6.394602    9.585036    3.194316    ( 0.0000,  0.0000,  0.0000)
  33 I      9.585036    6.394602    3.194316    ( 0.0000,  0.0000,  0.0000)
  34 Cs     6.337698    6.337698    6.390000    ( 0.0000,  0.0000,  0.0000)
  35 Pb     9.585019    9.585019    9.549438    ( 0.0000,  0.0000,  0.0000)
  36 I      9.585040    9.585040    6.390000    ( 0.0000,  0.0000,  0.0000)
  37 I      6.394602    9.585036    9.585684    ( 0.0000,  0.0000,  0.0000)
  38 I      9.585036    6.394602    9.585684    ( 0.0000,  0.0000,  0.0000)

Unit cell:
           periodic     x           y           z      points  spacing
  1. axis:    yes   12.780000    0.000000    0.000000    75     0.1704
  2. axis:    yes    0.000000   12.780000    0.000000    75     0.1704
  3. axis:    yes    0.000000    0.000000   12.780000    75     0.1704

  Lengths:  12.780000  12.780000  12.780000
  Angles:   90.000000  90.000000  90.000000

Effective grid spacing dv^(1/3) = 0.1704

     iter     time        total  log10-change:
                         energy   eigst   dens
iter:   1 01:42:55  -110.365861   -5.43
iter:   2 01:43:24  -110.365833   -6.70  -4.22c
iter:   3 01:43:53  -110.365720c  -7.43c -4.25c

Converged after 3 iterations.

Dipole moment: (37.708546, 37.708546, 0.000000) |e|*Ang

Energy contributions relative to reference atoms: (reference = -10684034.619125)

Kinetic:       +192.831413
Potential:     -200.482180
External:        +0.000000
XC:            -101.700696
Entropy (-ST):   -0.180817
Local:           -0.923849
SIC:             +0.000000
--------------------------
Free energy:   -110.456128
Extrapolated:  -110.365720

Showing all kpts
 Kpt  Band  Eigenvalues  Occupancy
  0   170      1.05701    2.00000
  0   171      1.16104    2.00000
  0   172      3.61771    0.92699
  0   173      4.02319    0.02952

  1   170      1.05701    2.00000
  1   171      1.16104    2.00000
  1   172      3.61771    0.92699
  1   173      4.02319    0.02952


Fermi level: 3.60308

Gap: 2.457 eV
Transition (v -> c):
  (s=0, k=0, n=171, [0.25, -0.25, 0.25]) -> (s=0, k=1, n=172, [0.25, 0.25, 0.25])
Direct/indirect transitions are different
Direct gap: 2.457 eV
Transition at: (s=0, k=0, n=171, [0.25, -0.25, 0.25])

Forces in eV/Ang:
  0 Cs    0.01238    0.01238    0.00000
  1 Pb    0.00002    0.00002   -0.00520
  2 I     0.00383    0.00002   -0.01789
  3 I     0.00002    0.00383   -0.01789
  4 Cs    0.00546    0.00546    0.00000
  5 Pb    0.00002    0.00002    0.00520
  6 I     0.00002    0.00002    0.00000
  7 I     0.00383    0.00002    0.01789
  8 I     0.00002    0.00383    0.01789
  9 Cs    0.01238   -0.01237    0.00000
 10 Pb    0.00002   -0.00003   -0.00420
 11 I     0.00001   -0.00002    0.00000
 12 I    -0.00453   -0.00002   -0.00979
 13 I     0.00002   -0.00382   -0.01788
 14 Cs    0.00547   -0.00547    0.00000
 15 Pb    0.00002   -0.00003    0.00420
 16 I     0.00001   -0.00001    0.00000
 17 I    -0.00453   -0.00002    0.00979
 18 I     0.00002   -0.00382    0.01788
 19 Cs   -0.01237    0.01238    0.00000
 20 Pb   -0.00003    0.00002   -0.00420
 21 I    -0.00002    0.00001    0.00000
 22 I    -0.00382    0.00002   -0.01788
 23 I    -0.00002   -0.00453   -0.00979
 24 Cs   -0.00547    0.00547    0.00000
 25 Pb   -0.00003    0.00002    0.00420
 26 I    -0.00001    0.00001    0.00000
 27 I    -0.00382    0.00002    0.01788
 28 I    -0.00002   -0.00453    0.00979
 29 Cs   -0.01237   -0.01237    0.00000
 30 Pb   -0.00003   -0.00003   -0.00635
 31 I    -0.00003   -0.00003    0.00000
 32 I     0.00453   -0.00001   -0.00979
 33 I    -0.00001    0.00453   -0.00979
 34 Cs   -0.00547   -0.00547    0.00000
 35 Pb   -0.00003   -0.00003    0.00635
 36 I    -0.00001   -0.00001    0.00000
 37 I     0.00453   -0.00001    0.00979
 38 I    -0.00001    0.00453    0.00979

Timing:                                      incl.     excl.
-------------------------------------------------------------------
Density initialized from wave functions:    84.079    82.461   1.2% |
 Symmetrize density:                         1.619     1.619   0.0% |
Forces:                                    252.660   252.660   3.8% |-|
Hamiltonian:                                66.684     0.241   0.0% |
 Atomic:                                    23.018     0.058   0.0% |
  XC Correction:                            22.960    22.960   0.3% |
 Calculate atomic Hamiltonians:             26.305    26.305   0.4% |
 Communicate:                                0.000     0.000   0.0% |
 Initialize Hamiltonian:                     0.001     0.001   0.0% |
 Poisson:                                    0.298     0.298   0.0% |
 XC 3D grid:                                16.821    16.821   0.3% |
LCAO initialization:                        36.396     0.085   0.0% |
 LCAO eigensolver:                           0.769     0.000   0.0% |
  Calculate projections:                     0.005     0.005   0.0% |
  DenseAtomicCorrection:                     0.005     0.005   0.0% |
  Distribute overlap matrix:                 0.001     0.001   0.0% |
  Orbital Layouts:                           0.049     0.049   0.0% |
  Potential matrix:                          0.667     0.667   0.0% |
  Sum over cells:                            0.042     0.042   0.0% |
 LCAO to grid:                              35.253    35.253   0.5% |
 Set positions (LCAO WFS):                   0.289     0.047   0.0% |
  Basic WFS set positions:                   0.002     0.002   0.0% |
  Basis functions set positions:             0.000     0.000   0.0% |
  P tci:                                     0.170     0.170   0.0% |
  ST tci:                                    0.061     0.061   0.0% |
  mktci:                                     0.008     0.008   0.0% |
PWDescriptor:                                0.224     0.224   0.0% |
Redistribute:                                0.084     0.084   0.0% |
SCF-cycle:                                6170.191     0.562   0.0% |
 Davidson:                                5066.256   927.526  13.9% |-----|
  Apply H:                                 779.767   761.981  11.4% |----|
   HMM T:                                   17.786    17.786   0.3% |
  Subspace diag:                          1009.496     0.062   0.0% |
   calc_h_matrix:                          886.883    91.592   1.4% ||
    Apply H:                               795.290   776.960  11.6% |----|
     HMM T:                                 18.331    18.331   0.3% |
   diagonalize:                             31.107    31.107   0.5% |
   rotate_psi:                              91.444    91.444   1.4% ||
  calc. matrices:                         1996.156   426.083   6.4% |--|
   Apply H:                               1570.074  1533.969  22.9% |--------|
    HMM T:                                  36.105    36.105   0.5% |
  diagonalize:                             191.222   191.222   2.9% ||
  rotate_psi:                              162.089   162.089   2.4% ||
 Density:                                  595.197     0.003   0.0% |
  Atomic density matrices:                   0.744     0.744   0.0% |
  Mix:                                     232.922   232.922   3.5% ||
  Multipole moments:                         0.062     0.062   0.0% |
  Pseudo density:                          361.465   349.911   5.2% |-|
   Symmetrize density:                      11.553    11.553   0.2% |
 Hamiltonian:                              474.269     1.614   0.0% |
  Atomic:                                  167.053     0.395   0.0% |
   XC Correction:                          166.658   166.658   2.5% ||
  Calculate atomic Hamiltonians:           190.004   190.004   2.8% ||
  Communicate:                               0.001     0.001   0.0% |
  Poisson:                                   2.016     2.016   0.0% |
  XC 3D grid:                              113.581   113.581   1.7% ||
 Orthonormalize:                            33.908     0.014   0.0% |
  calc_s_matrix:                             4.683     4.683   0.1% |
  inverse-cholesky:                          0.672     0.672   0.0% |
  projections:                              22.451    22.451   0.3% |
  rotate_psi_s:                              6.089     6.089   0.1% |
Set symmetry:                                0.001     0.001   0.0% |
Other:                                      74.325    74.325   1.1% |
-------------------------------------------------------------------
Total:                                              6684.645 100.0%

Memory usage: 2.94 GiB
Date: Thu Jul 16 01:44:04 2026
